/*--------------------------------*- C++ -*----------------------------------*\
  =========                 |
  \\      /  F ield         | OpenFOAM: The Open Source CFD Toolbox
   \\    /   O peration     | Website:  https://openfoam.org
    \\  /    A nd           | Version:  10
     \\/     M anipulation  |
\*---------------------------------------------------------------------------*/
FoamFile
{
    format      ascii;
    class       volVectorField;
    location    "7.2";
    object      U;
}
// * * * * * * * * * * * * * * * * * * * * * * * * * * * * * * * * * * * * * //

dimensions      [0 1 -1 0 0 0 0];

internalField   nonuniform List<vector> 
2500
(
(-1.36268002730576e-06 -2.00891542685079e-06 3.29637446356512e-25)
(-3.42791568776652e-06 -2.75027014527968e-06 3.08987747546248e-24)
(-3.57931506226455e-06 -2.99572179520462e-06 4.63873165980106e-25)
(-2.93312859301552e-06 -3.09943520704626e-06 1.14698256287394e-25)
(-2.0796980591092e-06 -3.10551288130989e-06 -4.2690761718139e-25)
(-1.41255990879312e-06 -3.08469110887899e-06 -7.69097090919659e-25)
(-9.34421904133502e-07 -3.05947229161054e-06 -2.14235706597863e-25)
(-6.20037025817684e-07 -3.03937057507785e-06 -1.97143391870566e-25)
(-4.13562872367251e-07 -3.02460824943187e-06 -4.1350394559318e-25)
(-2.79304683790511e-07 -3.01461560524921e-06 3.88406246844837e-24)
(-1.90726748560009e-07 -3.00814364020082e-06 2.13434933449891e-24)
(-1.31204223184499e-07 -3.00412871817885e-06 4.46289056473162e-24)
(-9.0189429529254e-08 -3.00172398534857e-06 4.2267008755497e-24)
(-6.10613043031091e-08 -3.00031182365283e-06 1.63995846317462e-24)
(-3.97535587437237e-08 -2.99949327698058e-06 4.67687750200377e-24)
(-2.37168607784307e-08 -2.99901410073083e-06 1.1614858067412e-24)
(-1.13528977692716e-08 -2.99872914321559e-06 4.28905964392111e-24)
(-1.63172013976457e-09 -2.99855417944528e-06 4.2990169365629e-24)
(6.14609579145525e-09 -2.99844892365375e-06 9.5775396522488e-25)
(1.24576135394131e-08 -2.9983846174484e-06 3.10963082984814e-24)
(1.7649745857927e-08 -2.99834049490701e-06 2.19090887941454e-25)
(2.19915884275907e-08 -2.99831465351538e-06 -2.27689298595331e-25)
(2.56870212377421e-08 -2.99830337771244e-06 4.1726566117822e-24)
(2.89046075026277e-08 -2.99830330335091e-06 5.12566909945605e-25)
(3.17994605391618e-08 -2.99830646939785e-06 -8.64272784364272e-26)
(3.45112481746598e-08 -2.99831741093349e-06 3.57329731752105e-24)
(3.71689952220567e-08 -2.99833846072345e-06 1.37802023939286e-25)
(3.99101409713602e-08 -2.99836460349127e-06 1.21365133551803e-24)
(4.28871452664831e-08 -2.9984012793896e-06 4.01567174277719e-24)
(4.62649138892166e-08 -2.99845214049568e-06 -1.58353064651287e-25)
(5.02489595150757e-08 -2.99851728239644e-06 3.2925574795752e-25)
(5.51033836547371e-08 -2.9986110848133e-06 -5.02889867101593e-25)
(6.11661690421185e-08 -2.99874187300118e-06 9.11338289487853e-25)
(6.89082366399838e-08 -2.99894172141743e-06 9.24586948238986e-25)
(7.90235166634233e-08 -2.99925764814602e-06 -8.64586113276047e-26)
(9.25543686329542e-08 -2.99976838340873e-06 3.23937451895113e-24)
(1.11104745522792e-07 -3.00062215968982e-06 -2.99028824262998e-24)
(1.37233303944721e-07 -3.00206802366671e-06 -3.82133750419137e-25)
(1.75005595463652e-07 -3.00450228666656e-06 -1.92843143442521e-26)
(2.3105235046438e-07 -3.00852547289217e-06 -2.32127787278679e-24)
(3.1591840690719e-07 -3.01496648867655e-06 -5.75982437079742e-24)
(4.4624392981208e-07 -3.02489308014811e-06 -5.41286613574808e-24)
(6.48569523595308e-07 -3.03954860714543e-06 -3.11489366940452e-24)
(9.59063960659684e-07 -3.05964284701639e-06 -5.09240157829896e-24)
(1.43468447251392e-06 -3.08519972438886e-06 -5.68661468240598e-24)
(2.10418860450675e-06 -3.10706745074616e-06 -3.32862113190002e-24)
(2.96870691125898e-06 -3.10229955336651e-06 -5.23998397731398e-24)
(3.63354290208013e-06 -2.99743080397355e-06 -5.4118660945698e-24)
(3.47414312257608e-06 -2.74511711133926e-06 -2.73011345013115e-24)
(1.371934046538e-06 -2.00575523296858e-06 -2.80208445034839e-24)
(-1.78760986167613e-06 -2.43701588728248e-06 8.27467268333429e-26)
(-5.86305807435385e-06 -4.21667665071769e-06 -2.58433992109883e-26)
(-6.40072121427816e-06 -5.54005451474144e-06 3.11672827590404e-25)
(-5.42766069835314e-06 -6.08169873394567e-06 -3.72344815410424e-26)
(-3.96542422294319e-06 -6.08786332285323e-06 -2.08722343076065e-24)
(-2.77114690175638e-06 -5.9147426285503e-06 -2.56384634637178e-24)
(-1.89005466044791e-06 -5.73569583384402e-06 -7.14878810110471e-25)
(-1.29532315037377e-06 -5.59823329949716e-06 -7.42164690745066e-25)
(-8.95679475089003e-07 -5.50345290425902e-06 -2.63051119784288e-24)
(-6.28565553439222e-07 -5.44115440355195e-06 4.71627680375723e-25)
(-4.4679601587385e-07 -5.40129746322978e-06 4.1958160796502e-24)
(-3.20199901354801e-07 -5.37612690576092e-06 3.86729387832274e-24)
(-2.29520787683679e-07 -5.36028244544387e-06 1.80200501926098e-24)
(-1.62558493527694e-07 -5.35022709229632e-06 2.75525269476912e-24)
(-1.1170721230804e-07 -5.34372096793814e-06 7.2978337456051e-25)
(-7.21033211679872e-08 -5.33938343074196e-06 1.26559252081155e-24)
(-4.06079666315773e-08 -5.33639066288239e-06 2.95410738385739e-24)
(-1.51322815163822e-08 -5.33426469622169e-06 1.44942278920505e-24)
(5.78361989114626e-09 -5.33270769391559e-06 6.72256644628509e-25)
(2.31871388522e-08 -5.33154970022544e-06 -4.9834289025539e-26)
(3.78545987071787e-08 -5.33067818180972e-06 -5.04885859214681e-25)
(5.03993291022352e-08 -5.33002593561763e-06 -2.03482370812173e-24)
(6.13176010025843e-08 -5.32955117188581e-06 1.97541836592123e-24)
(7.10288212087062e-08 -5.32923272076907e-06 3.004134360232e-25)
(7.99089614005331e-08 -5.32903731560726e-06 -1.49759743398937e-24)
(8.8303294304314e-08 -5.32897221689879e-06 1.41879506393356e-24)
(9.65482262192121e-08 -5.32903455906869e-06 -7.74902847339293e-25)
(1.04988250586731e-07 -5.32922774038209e-06 2.78964641633397e-24)
(1.13995954529854e-07 -5.32956551174517e-06 2.15889505943379e-24)
(1.23983650522083e-07 -5.33008695197898e-06 -1.50672373211316e-24)
(1.35436053057331e-07 -5.33082167046716e-06 1.02885352274372e-24)
(1.48964235578099e-07 -5.3318444328113e-06 -1.52284240259308e-24)
(1.65332618912557e-07 -5.33326132791226e-06 2.83082430511126e-24)
(1.8556368726791e-07 -5.33524507690907e-06 2.71186635766413e-24)
(2.11115415240622e-07 -5.33809440795146e-06 -1.22988506073481e-24)
(2.44095659221808e-07 -5.34231375887056e-06 1.15457511380893e-24)
(2.87649167868139e-07 -5.34870794136125e-06 -1.57627421989774e-24)
(3.4665178580745e-07 -5.35866039031296e-06 -2.68623340734916e-25)
(4.28727378386154e-07 -5.37438934835233e-06 7.26579410890676e-25)
(5.46114768407624e-07 -5.3994295390641e-06 -5.05874176680983e-24)
(7.18055621953565e-07 -5.439097898591e-06 -5.68030930321925e-24)
(9.74826149681808e-07 -5.50117103340917e-06 -5.65454822769013e-24)
(1.36368376767261e-06 -5.59585057518269e-06 -6.6816957460524e-24)
(1.94812192024445e-06 -5.73398818170261e-06 -5.40819935053497e-24)
(2.82161710450476e-06 -5.91592119884101e-06 -5.94638294518961e-24)
(4.01754867073885e-06 -6.09579863439512e-06 -7.10941513440915e-24)
(5.49835140029317e-06 -6.09746826350856e-06 -5.68521934807974e-24)
(6.50624412436697e-06 -5.54797546590296e-06 -5.66439246863097e-24)
(5.9601323491201e-06 -4.19088470845464e-06 -5.66645015209513e-24)
(1.81077181156941e-06 -2.40670331485893e-06 -2.83090585795882e-24)
(-1.02588070782738e-06 6.72319160847276e-07 -3.67301112045642e-25)
(-5.34433990736485e-06 -1.33704255454091e-06 -3.68673540011586e-24)
(-6.10500793023399e-06 -3.77799446185513e-06 -1.45972182155965e-25)
(-5.42183590501487e-06 -4.79441187260324e-06 -3.39508673149323e-25)
(-4.12555248676953e-06 -4.81516479783607e-06 -4.40291321214307e-24)
(-3.00761304189248e-06 -4.48032903390541e-06 -4.55150931044388e-24)
(-2.142901153797e-06 -4.13345653504295e-06 -9.83991217449171e-25)
(-1.53574266399295e-06 -3.86715070813307e-06 -1.0967108985268e-24)
(-1.11118192851116e-06 -3.68471007439725e-06 -5.33393189066951e-24)
(-8.15277807637117e-07 -3.56512442235675e-06 -3.49066296371571e-24)
(-6.05035236625311e-07 -3.48829458086547e-06 5.35726020836005e-24)
(-4.52113474684599e-07 -3.4390537798163e-06 2.1745159085767e-24)
(-3.37979055709006e-07 -3.40724776436364e-06 -2.18657145944766e-24)
(-2.50519738132022e-07 -3.38633460688675e-06 3.92071661620251e-24)
(-1.81928222357187e-07 -3.37222516179749e-06 -3.03615453675099e-24)
(-1.27025859277766e-07 -3.36241320751545e-06 4.56447253093318e-25)
(-8.23290156697211e-08 -3.35537095955172e-06 8.04311624946498e-25)
(-4.54087505791014e-08 -3.3501824128608e-06 -2.19706914737404e-24)
(-1.45136464424825e-08 -3.34627158305413e-06 -3.07813953558066e-25)
(1.16521188660933e-08 -3.34328451777296e-06 -3.81978660059156e-24)
(3.4096819386862e-08 -3.34099669302424e-06 -1.35154146879257e-24)
(5.36301582559342e-08 -3.33925634364557e-06 -4.34892676438487e-24)
(7.09121794128662e-08 -3.33796731051129e-06 -2.4503213593861e-25)
(8.65253629853593e-08 -3.33706543224527e-06 -2.26879470078958e-25)
(1.00991772684165e-07 -3.33651057964671e-06 -3.75541576200402e-24)
(1.14791207821192e-07 -3.33628771516666e-06 -6.85709742401588e-25)
(1.28402084561936e-07 -3.33640442509837e-06 -3.08960028754e-24)
(1.42307510528036e-07 -3.33686376918342e-06 4.88834934059821e-24)
(1.57019548944849e-07 -3.33770701789034e-06 4.58971610033903e-25)
(1.73107946881754e-07 -3.33900156291964e-06 -3.50117019274773e-24)
(1.91234171621853e-07 -3.34083642711686e-06 2.47627326551897e-24)
(2.12194449771025e-07 -3.34335409798527e-06 -2.94805014791373e-24)
(2.36981501741658e-07 -3.34679407055707e-06 4.78233169893815e-24)
(2.66877085420054e-07 -3.35150196731429e-06 4.51856222558967e-24)
(3.03616600533403e-07 -3.35806494098513e-06 -3.52939636735989e-24)
(3.49643214721913e-07 -3.36742189559642e-06 -6.71915903633791e-25)
(4.08450472401473e-07 -3.38109118729244e-06 -2.20982504528985e-25)
(4.85226098715307e-07 -3.40158509404212e-06 2.47392859589157e-25)
(5.87789149322868e-07 -3.43298085859354e-06 3.31671053905341e-24)
(7.28305640655122e-07 -3.48184318513741e-06 -6.50672732489992e-24)
(9.25322230065906e-07 -3.55832203547929e-06 -3.87295895942747e-24)
(1.2073507879395e-06 -3.67763714730944e-06 -3.91774898206955e-24)
(1.61752781349313e-06 -3.86026203139902e-06 -8.47281434363914e-24)
(2.21086194539884e-06 -4.12835907307504e-06 -3.98394591448878e-24)
(3.06455444205653e-06 -4.48129670694325e-06 -4.28101003659051e-24)
(4.18105721015825e-06 -4.82959572440328e-06 -8.84680972912078e-24)
(5.49422149797039e-06 -4.82467227728283e-06 -4.19023152494419e-24)
(6.21516028874139e-06 -3.79531222587779e-06 -3.99912234576546e-24)
(5.46046206228199e-06 -1.29227453062549e-06 -7.37243617910094e-24)
(1.06357205928367e-06 7.43002018034701e-07 -1.77420722167444e-24)
(-2.79681463484504e-07 3.64756373219353e-06 -3.60041908917587e-25)
(-3.46480725588776e-06 1.99371003587674e-06 -4.08864092282964e-24)
(-4.28550773181711e-06 -1.39150787347045e-06 -8.01070322908745e-26)
(-4.1217508529729e-06 -2.89477267646363e-06 -5.04657881151388e-26)
(-3.358947004428e-06 -3.03461087382668e-06 -1.89285253202965e-24)
(-2.61980655427278e-06 -2.64116646432946e-06 -2.5410677441628e-24)
(-1.98992805064997e-06 -2.20145815849537e-06 -5.65451678402574e-25)
(-1.51392628380241e-06 -1.85295132315327e-06 -6.27457972392118e-25)
(-1.15704216442913e-06 -1.6096293275177e-06 -3.16377267255938e-24)
(-8.91662623996626e-07 -1.44712189030087e-06 -3.75288527531778e-24)
(-6.91605085205773e-07 -1.34044167073479e-06 3.10105071664427e-24)
(-5.38262109448648e-07 -1.27026516759848e-06 -2.55771314764875e-25)
(-4.18640846025334e-07 -1.22355602213739e-06 -3.0152360437048e-24)
(-3.23607938604867e-07 -1.1918298824676e-06 1.4755280578689e-24)
(-2.46894175499995e-07 -1.16972715533698e-06 -3.43398027730273e-24)
(-1.84048485600597e-07 -1.15389708088107e-06 1.21364526575391e-25)
(-1.31889729052233e-07 -1.14224632165757e-06 -1.23287192121976e-24)
(-8.80860370682398e-08 -1.13347884572942e-06 -2.5998887081328e-24)
(-5.0876342173687e-08 -1.12676045690806e-06 -2.95117104759358e-25)
(-1.89047542783885e-08 -1.12156319426322e-06 -3.81515705835054e-24)
(8.90880226201172e-09 -1.11754119684594e-06 -9.4333758479441e-25)
(3.34514558734158e-08 -1.11445492722458e-06 -2.49992979182392e-24)
(5.54702691807505e-08 -1.11216203605769e-06 -1.84556788912831e-24)
(7.56243974001486e-08 -1.11053872563579e-06 -1.43778742618213e-25)
(9.45118340384711e-08 -1.10954120096764e-06 -1.88707984021381e-24)
(1.12685732078913e-07 -1.1091362612051e-06 -2.04327852144401e-24)
(1.30702241912866e-07 -1.10931994855198e-06 -1.29384926013861e-24)
(1.49121964128196e-07 -1.11012392483714e-06 2.19515059989697e-24)
(1.68529395163314e-07 -1.11160367324547e-06 -1.47800642135866e-24)
(1.89578087081064e-07 -1.11385578508636e-06 -2.10541854501327e-24)
(2.13009551245531e-07 -1.11704223519277e-06 8.46749633566359e-25)
(2.39695763176038e-07 -1.12138762445452e-06 -1.72402769921647e-24)
(2.70706128528356e-07 -1.12723002447863e-06 2.70924093148345e-24)
(3.07384067285027e-07 -1.13512128927034e-06 2.59394785856479e-24)
(3.51472580099499e-07 -1.14589586377153e-06 -1.8127988143571e-24)
(4.05310524673778e-07 -1.16085527053963e-06 -2.17162457971436e-24)
(4.7207411121739e-07 -1.18210736747642e-06 1.58097235644653e-24)
(5.56210932053251e-07 -1.21299640071625e-06 3.38317179580775e-25)
(6.63996353655157e-07 -1.25889395325911e-06 1.06190396777752e-24)
(8.04607549563568e-07 -1.32831327843147e-06 -4.15208977694919e-24)
(9.91051172608551e-07 -1.43432632337859e-06 -6.22640253923728e-25)
(1.24214085661618e-06 -1.59641115544858e-06 -5.1095584176321e-25)
(1.58418679262754e-06 -1.84011667985854e-06 -5.03986898310118e-24)
(2.04571277467456e-06 -2.19148708593014e-06 -7.8266357047894e-25)
(2.66313166453401e-06 -2.64036490982825e-06 -9.23986668577996e-25)
(3.39734801020485e-06 -3.05396046423528e-06 -5.57751393494018e-24)
(4.17093634372777e-06 -2.93902958155795e-06 -8.36178056635207e-25)
(4.36670033560353e-06 -1.42296701887279e-06 -7.55010289444553e-26)
(3.56768590938629e-06 2.04713111119072e-06 -4.88287766810535e-24)
(3.23321480458208e-07 3.74766893178722e-06 7.21609528509988e-27)
(2.06548259290927e-07 5.71562132504592e-06 1.40672520381439e-25)
(-1.42873611507071e-06 4.60152361202504e-06 -1.24257119797937e-24)
(-2.20453927998409e-06 6.43759092224208e-07 5.32778078573443e-25)
(-2.51626868671447e-06 -1.27219495595389e-06 4.20702739865774e-25)
(-2.32772936612281e-06 -1.60981711902832e-06 5.82401940535662e-25)
(-2.01905616458509e-06 -1.26836262852375e-06 -8.5483090184309e-25)
(-1.67386444274955e-06 -8.22429773684628e-07 7.47259648481659e-27)
(-1.3685476545836e-06 -4.48236130018584e-07 6.13503422653079e-27)
(-1.10975344774808e-06 -1.77360413274732e-07 -1.0923101215558e-24)
(-8.97952046857305e-07 9.44681413311589e-09 -1.21315642097937e-24)
(-7.25754164367764e-07 1.3600368025462e-07 2.05450988509329e-24)
(-5.85719072437791e-07 2.2194290912815e-07 7.68072254394537e-25)
(-4.7142872785375e-07 2.80992099986524e-07 -5.52528525857639e-25)
(-3.77458632451462e-07 3.2233115538803e-07 1.08974268692165e-24)
(-2.99596097521735e-07 3.51926589569092e-07 -9.32027822714949e-25)
(-2.34504141157461e-07 3.73630197652296e-07 6.32515394889876e-25)
(-1.79595900260232e-07 3.89900392109552e-07 2.88055424336569e-25)
(-1.32836106556561e-07 4.02338116166909e-07 -2.10520935720238e-25)
(-9.26155726882287e-08 4.11970156057204e-07 5.71940509804905e-25)
(-5.7652801832819e-08 4.19481152656468e-07 -9.59037853536392e-25)
(-2.68790134709788e-08 4.25331214272805e-07 7.74119797650464e-26)
(5.90599959732289e-10 4.29833251889957e-07 -6.77794722475399e-25)
(2.55175127585907e-08 4.33193732707935e-07 -1.83842901206711e-25)
(4.85848330105756e-08 4.3555954185954e-07 4.01915875927651e-25)
(7.04097631499161e-08 4.37007371515974e-07 -3.73301510517554e-25)
(9.15820849110222e-08 4.37577314728338e-07 -2.82495821168255e-25)
(1.1267695845721e-07 4.37279854185205e-07 -2.83909709560995e-25)
(1.34280443572986e-07 4.36070675571135e-07 1.13375642575766e-24)
(1.5700926108505e-07 4.33864264033624e-07 -3.55678816665011e-25)
(1.81529178656568e-07 4.30537235837883e-07 -9.08364390093125e-25)
(2.0859866791688e-07 4.25872142014293e-07 2.40881410698881e-25)
(2.39099900651282e-07 4.19559124717124e-07 -1.04379028981735e-24)
(2.74073378234957e-07 4.11156982017196e-07 1.10136750646054e-24)
(3.1479723219047e-07 3.99966157610258e-07 1.16635421374717e-24)
(3.6286885229483e-07 3.84935007661485e-07 -8.22809100681421e-25)
(4.20303671030252e-07 3.64479552119659e-07 -7.25123310084418e-25)
(4.89679617336052e-07 3.36116148764925e-07 5.10139581638066e-25)
(5.74320188142264e-07 2.96014200390427e-07 6.15994616904687e-26)
(6.7841660862196e-07 2.38186338913535e-07 2.16730719914127e-25)
(8.07420767867904e-07 1.53407970465134e-07 -3.15415203615653e-24)
(9.67728733909029e-07 2.79010010292759e-08 -8.03826297585712e-25)
(1.16693629116179e-06 -1.58199953429506e-07 -6.9915402435056e-25)
(1.41244428152718e-06 -4.29445252760453e-07 -3.31832001830937e-24)
(1.70435388856228e-06 -8.07150453142716e-07 -8.19793866604299e-25)
(2.03686373765284e-06 -1.26451199382869e-06 -9.34372774649863e-25)
(2.33740428577138e-06 -1.63146076525962e-06 -3.69973629158533e-24)
(2.52920600228232e-06 -1.32703269979638e-06 -8.9159031718045e-25)
(2.23933466770523e-06 5.97185428714511e-07 -8.45561130114221e-25)
(1.49413040680605e-06 4.65425594815391e-06 -4.12691669854071e-24)
(-1.70024731385188e-07 5.83209457754803e-06 -1.18248449077421e-25)
(4.31629544613811e-07 6.71821517169236e-06 5.31961414293317e-25)
(1.24705405643096e-07 6.10861258687674e-06 2.4942576578128e-25)
(-5.52900725075835e-07 1.98268745800219e-06 9.79429069748121e-25)
(-1.16493081375884e-06 -2.01628711206621e-07 5.65049537122461e-25)
(-1.41003353212254e-06 -7.40731913442487e-07 2.0953282404648e-25)
(-1.44313684817212e-06 -5.08473652016246e-07 -1.60726863216756e-25)
(-1.33770055465933e-06 -1.10150752703293e-07 3.65514776078851e-25)
(-1.18406486470568e-06 2.50805746044856e-07 4.1277309739097e-25)
(-1.01846195124638e-06 5.24396497730422e-07 -1.00744330267801e-26)
(-8.62115845632652e-07 7.20374967066209e-07 1.12855731246266e-25)
(-7.22541719722084e-07 8.57843890014013e-07 1.71274491401292e-24)
(-6.01426291792469e-07 9.54313338667598e-07 1.29536207381918e-24)
(-4.97963687530392e-07 1.02267393312817e-06 7.18402107695425e-25)
(-4.10052832860204e-07 1.07187591759067e-06 1.28076041497979e-24)
(-3.35426826841407e-07 1.10797114129502e-06 3.78005571971753e-25)
(-2.7188427981052e-07 1.13497506661652e-06 1.07427912689016e-24)
(-2.17489906577106e-07 1.15554647413108e-06 1.21403112266872e-24)
(-1.70599316351475e-07 1.17145794558234e-06 1.03179252705302e-24)
(-1.29834353037411e-07 1.18388388564307e-06 1.21589290718409e-24)
(-9.40323803551922e-08 1.19363603224607e-06 4.90405119903229e-25)
(-6.22114290271499e-08 1.201262045063e-06 7.97950255012036e-25)
(-3.35333326200337e-08 1.20713800469464e-06 2.77785120338269e-25)
(-7.26242098593741e-09 1.21152664051504e-06 7.98280509160137e-25)
(1.72658013630356e-08 1.21459415717261e-06 8.03233690385678e-25)
(4.0662683994164e-08 1.21644795110708e-06 3.42265935586885e-25)
(6.35079634843494e-08 1.217143423355e-06 7.19190770420889e-25)
(8.63743845551101e-08 1.21668050424107e-06 1.2898667516391e-25)
(1.09836723681202e-07 1.2150119997637e-06 8.08941922109142e-25)
(1.34503501410601e-07 1.21203000525599e-06 2.95737720425216e-25)
(1.61031636266896e-07 1.2075784280419e-06 -3.3312088176903e-25)
(1.90142627367395e-07 1.20139403943028e-06 2.1403037676846e-25)
(2.22669423448045e-07 1.1931032815917e-06 -8.09240770713915e-25)
(2.59579752386265e-07 1.18216405777595e-06 3.51623798712274e-25)
(3.02015689706636e-07 1.16776906261316e-06 4.56345020748593e-25)
(3.51344542436042e-07 1.14872500459751e-06 -3.76397168497681e-25)
(4.09191117090873e-07 1.12325785021269e-06 3.0364955354364e-26)
(4.77463769416328e-07 1.08870840608904e-06 -5.4315070888804e-26)
(5.58338455351738e-07 1.04105549789275e-06 -1.76954724208679e-25)
(6.54036353935139e-07 9.74255051885139e-07 1.23080051449802e-25)
(7.66661490140027e-07 8.79306658257371e-07 -1.29543079450814e-24)
(8.96946996861717e-07 7.43235006173474e-07 -7.23098140177949e-25)
(1.04326493955428e-06 5.48299754161502e-07 -6.82614577088066e-25)
(1.19794219040324e-06 2.7458462109328e-07 -1.45122717640907e-24)
(1.33994426304949e-06 -8.99323695642741e-08 -6.69012372622292e-25)
(1.43311779685482e-06 -5.0067485237507e-07 -7.60219319618603e-25)
(1.38944981252472e-06 -7.61635181874195e-07 -1.71183448556218e-24)
(1.14075499407814e-06 -2.61839066382976e-07 -7.50501082924557e-25)
(5.39803142425006e-07 1.92415377643216e-06 -6.9560648964837e-25)
(-1.0644103028931e-07 6.15465217376432e-06 -1.65141315949621e-24)
(-4.1096029047892e-07 6.83932702437651e-06 -1.24655183289997e-25)
(4.84476899511602e-07 6.80182423808693e-06 7.013652286631e-25)
(1.02168624951756e-06 6.57912323111072e-06 1.46417480702709e-24)
(4.61617356468333e-07 2.59777515185518e-06 1.12089632025526e-24)
(-2.61090645777174e-07 2.91785326407477e-07 5.49755799737505e-25)
(-7.48339822471938e-07 -4.10007405407336e-07 3.3127924353061e-25)
(-9.90931315537913e-07 -3.00919283960064e-07 4.95032539914278e-25)
(-1.04747161048492e-06 2.62717667375517e-08 4.87374842240688e-25)
(-1.00447580777419e-06 3.53204856305605e-07 5.51358906591328e-25)
(-9.12554520931364e-07 6.14612399273123e-07 7.75275195781521e-25)
(-8.03816471098489e-07 8.0972825054435e-07 1.03841111189957e-24)
(-6.94920626706373e-07 9.51599850735651e-07 1.06251707702932e-24)
(-5.93538943003876e-07 1.05442457155262e-06 1.38839998694687e-24)
(-5.02859414677893e-07 1.12942484552162e-06 1.308122905387e-24)
(-4.2328950163801e-07 1.18478836844202e-06 9.66551633392175e-25)
(-3.5414580350117e-07 1.22628330722979e-06 1.17084191886948e-24)
(-2.94225863479042e-07 1.25787372678876e-06 1.17813383532479e-24)
(-2.42220651069569e-07 1.28227272843649e-06 1.52416775715583e-24)
(-1.96876105404323e-07 1.30133436475089e-06 1.67822728526266e-24)
(-1.57058146564644e-07 1.31633566590885e-06 1.42024884616714e-24)
(-1.21775277485069e-07 1.3281678361484e-06 1.42336068560741e-24)
(-9.01500369640992e-08 1.33744542404821e-06 1.06277394004483e-24)
(-6.14153134871903e-08 1.34459888698959e-06 9.36417406876586e-25)
(-3.48912974919841e-08 1.34992270910177e-06 1.18265222116877e-24)
(-9.94865300839443e-09 1.35362955883942e-06 9.09836853618775e-25)
(1.3997911789434e-08 1.35583465815711e-06 9.46041589708841e-25)
(3.75030641468151e-08 1.35660099584116e-06 1.14467599443467e-24)
(6.110901300271e-08 1.35593301007503e-06 6.05677043135167e-25)
(8.53685902697368e-08 1.35377178515297e-06 3.72583702061625e-25)
(1.10864760516089e-07 1.35000613836019e-06 6.02440403093207e-25)
(1.38209265543698e-07 1.34442521033835e-06 2.36754218322729e-25)
(1.68074952289634e-07 1.33674740837284e-06 -9.6930761778699e-26)
(2.01223047122671e-07 1.32653449748183e-06 -3.36444064693773e-25)
(2.38507838226248e-07 1.3131936788391e-06 -2.91543061689667e-25)
(2.8091464933699e-07 1.29581605908638e-06 -1.51885012064243e-25)
(3.2955367575654e-07 1.27313771531323e-06 1.62651474782336e-25)
(3.85647401577083e-07 1.24328220667832e-06 3.99398421823928e-25)
(4.5047285767138e-07 1.20354738404862e-06 -3.22299300503687e-25)
(5.25203363955264e-07 1.14996645667224e-06 -2.92587158659585e-25)
(6.1046500017661e-07 1.07678444616622e-06 -1.13537428181716e-25)
(7.05808058336106e-07 9.75767800314291e-07 -1.08146206575399e-25)
(8.07935845856131e-07 8.35616223532221e-07 -5.92240275144341e-25)
(9.09142343878975e-07 6.41915222535701e-07 -6.19229851825759e-25)
(9.92446251399743e-07 3.80830652842015e-07 -1.51745417598901e-25)
(1.0256256277663e-06 5.07922023603649e-08 -5.38409339068746e-25)
(9.57612479517585e-07 -2.8876608744284e-07 -5.86336358370808e-25)
(7.03171270429106e-07 -4.27968259343192e-07 -2.29112752430095e-25)
(2.07544134785742e-07 2.30483803024069e-07 -5.92126168254982e-25)
(-5.1250400228703e-07 2.5311735878738e-06 -4.62487815825648e-25)
(-1.04556586735055e-06 6.61452481150424e-06 1.30637715768307e-25)
(-4.80785270481571e-07 6.91801584022851e-06 5.10926312984642e-26)
(4.5595304872789e-07 6.31340304662291e-06 6.41467951474121e-25)
(1.36492302319204e-06 6.37574656965623e-06 1.73849223533373e-24)
(9.23043528885018e-07 2.71889125621865e-06 9.75853010036275e-25)
(2.2923814682062e-07 4.03704754110374e-07 4.35688109172509e-25)
(-3.38624406400739e-07 -4.0877918538669e-07 1.92879105775125e-25)
(-6.74464245272831e-07 -4.11310514695333e-07 7.09990977561459e-25)
(-8.20361695227886e-07 -1.58706920031465e-07 4.51896065183939e-25)
(-8.47178988958999e-07 1.261233871746e-07 5.07548212674935e-25)
(-8.07445122441792e-07 3.67568878215754e-07 9.55549204341601e-25)
(-7.35853627006949e-07 5.55566877655698e-07 1.0930615340219e-24)
(-6.53083043270913e-07 6.97219036598094e-07 5.35469150367462e-25)
(-5.69918379454614e-07 8.03101014862902e-07 1.02016672040324e-24)
(-4.91956547574618e-07 8.82440826018404e-07 1.24712167057735e-24)
(-4.21313396069194e-07 9.42391277466417e-07 6.13007429072189e-25)
(-3.58487401884579e-07 9.88203404821439e-07 1.14724731796024e-24)
(-3.03083641919731e-07 1.02362796894983e-06 9.64591460692728e-25)
(-2.54333955072723e-07 1.05132708260491e-06 1.24814398934895e-24)
(-2.11353293165994e-07 1.07317228046066e-06 1.54863213275044e-24)
(-1.73258122671014e-07 1.09048469217754e-06 1.21480096568549e-24)
(-1.39219096881781e-07 1.1041937044255e-06 1.44387659646363e-24)
(-1.08482762955191e-07 1.11497674100038e-06 9.59174017543008e-25)
(-8.03686683864057e-08 1.12328417879363e-06 1.01898926193678e-24)
(-5.42482252810528e-08 1.129462018785e-06 9.84861901026641e-25)
(-2.9543653884419e-08 1.13372999523936e-06 7.59727826688328e-25)
(-5.71522138744028e-09 1.13623213028902e-06 1.01038921394042e-24)
(1.77616446715295e-08 1.13702807450147e-06 9.96579471802867e-25)
(4.13987621220204e-08 1.13612596042705e-06 6.46249470009933e-25)
(6.57150089691719e-08 1.1334631079773e-06 8.20473276248887e-26)
(9.12446584256413e-08 1.12891051580194e-06 4.77594577017442e-25)
(1.18561698026352e-07 1.12224135115856e-06 4.16565438858997e-25)
(1.48275050873689e-07 1.11314158931758e-06 -2.11336565830203e-25)
(1.81058891206968e-07 1.10113106789517e-06 -7.10507295644659e-26)
(2.17649921238964e-07 1.08556888060642e-06 -5.27782919922175e-25)
(2.58859330971367e-07 1.06551352463633e-06 -4.21016010862695e-25)
(3.05549787955453e-07 1.03963548088903e-06 3.65992837785445e-25)
(3.58570423395355e-07 1.00607143792148e-06 3.65851560714315e-25)
(4.18656151349119e-07 9.62160552759522e-07 -2.46369222859616e-25)
(4.86164347420555e-07 9.04164861113557e-07 -2.76939118014066e-25)
(5.60524483258115e-07 8.2683257913308e-07 -2.29032782248674e-25)
(6.39564511618757e-07 7.22991985169968e-07 4.94581548029114e-25)
(7.1754366991984e-07 5.83358610689974e-07 -2.80293716505775e-25)
(7.83577059397146e-07 3.97176457247493e-07 -2.78528386955079e-25)
(8.16567434148758e-07 1.56615534137374e-07 5.92776588280557e-25)
(7.81528739441915e-07 -1.30566353828127e-07 -2.24873980045447e-25)
(6.25202254552039e-07 -3.94874093383615e-07 -2.24658836083361e-25)
(2.77466611754129e-07 -4.22774567050351e-07 6.69597017052787e-25)
(-3.00976995605337e-07 3.43710914985737e-07 -2.52355574328631e-25)
(-9.96789870366904e-07 2.64688565060972e-06 -1.16462968967488e-25)
(-1.41729239607295e-06 6.39739093101133e-06 1.20751835888879e-24)
(-4.64893772376045e-07 6.4171465452825e-06 1.5351580090335e-25)
(3.99262497643696e-07 5.59545083828232e-06 5.12250691104361e-25)
(1.35289335171056e-06 5.8820655947471e-06 1.86125739989349e-24)
(1.01994582918378e-06 2.60769668595476e-06 7.5442634784027e-25)
(4.29306856332585e-07 3.49499502824374e-07 3.67144774895583e-25)
(-1.16036384532439e-07 -5.28210188025e-07 7.74511596255987e-25)
(-4.66930154012821e-07 -6.21234218283714e-07 1.03828109301501e-24)
(-6.49726309681089e-07 -4.36676651796851e-07 3.83779128731049e-25)
(-7.1499066781893e-07 -1.94795200722781e-07 4.14135625839622e-25)
(-7.09605063687712e-07 2.33245057428681e-08 1.04979589613104e-24)
(-6.65576161213546e-07 2.00461559005689e-07 1.09817822078788e-24)
(-6.04030080225431e-07 3.38622719621768e-07 -3.98855640696146e-26)
(-5.36760105708134e-07 4.44983227916813e-07 6.12414858120175e-25)
(-4.70558753015651e-07 5.26733959498388e-07 1.09619704224873e-24)
(-4.08581665509988e-07 5.89856889199116e-07 1.57279127842666e-25)
(-3.52161301142118e-07 6.38967054603288e-07 1.05592689348623e-24)
(-3.01520951392793e-07 6.77506072974318e-07 6.75584383299127e-25)
(-2.5634500974797e-07 7.0799397217384e-07 8.53873103192745e-25)
(-2.16072266288494e-07 7.32246019554428e-07 1.35140224594964e-24)
(-1.80049891168637e-07 7.5159369629592e-07 9.08803197198666e-25)
(-1.47613749521933e-07 7.66980555665247e-07 1.36889609699799e-24)
(-1.18130126270936e-07 7.7910455458444e-07 7.53957540126264e-25)
(-9.10011715444491e-08 7.88455582018416e-07 1.03156357220815e-24)
(-6.56660705508459e-08 7.95399948751432e-07 6.81833263420249e-25)
(-4.16001137873972e-08 8.00163874016924e-07 5.51662560925573e-25)
(-1.83014902307465e-08 8.02911010765241e-07 1.03089665983885e-24)
(4.7116684726818e-09 8.03711308680731e-07 7.36889377640788e-25)
(2.79157067605755e-08 8.02567718893832e-07 6.6916395059506e-25)
(5.17912561329679e-08 7.99412883371923e-07 -2.44546636511192e-25)
(7.68352995978209e-08 7.94105029433885e-07 2.87502812506844e-25)
(1.03563530031729e-07 7.86413576435584e-07 5.66058719742318e-25)
(1.32516902247844e-07 7.75981177230531e-07 -4.3722641571518e-25)
(1.64285780101767e-07 7.62323264844355e-07 2.75863363124504e-25)
(1.99491968068815e-07 7.44754875344243e-07 -8.03730219279913e-25)
(2.38774951946228e-07 7.22338377283291e-07 -6.92502000236291e-25)
(2.82768811334091e-07 6.93730815065966e-07 6.22216715046606e-25)
(3.31998171654567e-07 6.5712546227246e-07 2.88849332257685e-25)
(3.86736806416827e-07 6.10012057055067e-07 -1.3759586755846e-25)
(4.46723606751704e-07 5.48964836165291e-07 -2.30396820877617e-25)
(5.10555922485295e-07 4.69370845913027e-07 -4.795461183178e-25)
(5.75006153432191e-07 3.65259778928617e-07 6.52928154367804e-25)
(6.33123652134037e-07 2.29392616760656e-07 -5.3555329052587e-26)
(6.72980493033536e-07 5.4473164952167e-08 -4.06071566857286e-26)
(6.73004097994742e-07 -1.6216313167675e-07 8.21655777128404e-25)
(6.00854541432835e-07 -4.05555467500689e-07 -1.08314311168253e-26)