/*--------------------------------*- C++ -*----------------------------------*\
  =========                 |
  \\      /  F ield         | OpenFOAM: The Open Source CFD Toolbox
   \\    /   O peration     | Website:  https://openfoam.org
    \\  /    A nd           | Version:  10
     \\/     M anipulation  |
\*---------------------------------------------------------------------------*/
FoamFile
{
    format      ascii;
    class       volScalarField;
    location    "7.2";
    object      wallHeatFlux;
}
// * * * * * * * * * * * * * * * * * * * * * * * * * * * * * * * * * * * * * //

dimensions      [1 0 -3 0 0 0 0];

internalField   uniform 0;

boundaryField
{
    back
    {
        type            calculated;
        value           uniform 0;
    }
    bottom
    {
        type            calculated;
        value           nonuniform List<scalar> 
50
(
83.4655992822037
84.5955185416268
87.4631017836998
89.6322372361523
91.0003573789457
91.808638303013
92.2703722245334
92.5260559091553
92.662687860486
92.7329981131374
92.7674605005163
92.7837117169082
92.7910588878498
92.7941810991047
92.7954625256363
92.7959173611022
92.7961192131055
92.7961637238639
92.7961477627179
92.7961446921133
92.7961359971427
92.796129201436
92.7961233999985
92.7961272229602
92.7961234722868
92.796121263976
92.7961268164581
92.7961318343677
92.7961414605521
92.7961534225635
92.796163243537
92.7961809284605
92.7961641773677
92.7960941546507
92.7958862709683
92.7953228817705
92.7939024808778
92.7904547912262
92.7827201276424
92.7657429810467
92.7302219058349
92.6589236259788
92.5214926409507
92.2661247010762
91.8071323169302
91.002819999003
89.6357140856626
87.4551869880966
84.5682957207615
83.4899025706167
)
;
    }
    left
    {
        type            calculated;
        value           uniform 0;
    }
    front
    {
        type            calculated;
        value           uniform 0;
    }
    right
    {
        type            calculated;
        value           uniform 0;
    }
    top
    {
        type            calculated;
        value           uniform 0;
    }
}


// ************************************************************************* //
