/*--------------------------------*- C++ -*----------------------------------*\
  =========                 |
  \\      /  F ield         | OpenFOAM: The Open Source CFD Toolbox
   \\    /   O peration     | Website:  https://openfoam.org
    \\  /    A nd           | Version:  10
     \\/     M anipulation  |
\*---------------------------------------------------------------------------*/
FoamFile
{
    format      ascii;
    class       volScalarField;
    location    "7.8";
    object      alphat;
}
// * * * * * * * * * * * * * * * * * * * * * * * * * * * * * * * * * * * * * //

dimensions      [1 -1 -1 0 0 0 0];

internalField   nonuniform List<scalar> 
2500
(
6.51430682952531e-15
1.28160092696816e-13
5.48803795016124e-13
9.5523826936844e-13
1.3105739955822e-12
1.60196196612901e-12
1.82671912051037e-12
1.98999210165888e-12
2.1018519559829e-12
2.17424151625124e-12
2.21856853496839e-12
2.24429885952916e-12
2.25848369823974e-12
2.26592466991645e-12
2.26964575118794e-12
2.27142285834553e-12
2.2722346757839e-12
2.2725898506894e-12
2.2727387506094e-12
2.27279849983372e-12
2.27282134171094e-12
2.27282954865833e-12
2.27283221736925e-12
2.27283290871782e-12
2.27283293410174e-12
2.27283268949356e-12
2.27283212842521e-12
2.27283066064717e-12
2.27282659552807e-12
2.27281558495289e-12
2.27278690528525e-12
2.27271511584352e-12
2.27254224727319e-12
2.27214167563701e-12
2.2712489994557e-12
2.26933802073241e-12
2.26541398001699e-12
2.25769809478538e-12
2.24319635645169e-12
2.21719446101735e-12
2.17280401850428e-12
2.10079007393265e-12
1.98998910332776e-12
1.82860359351707e-12
1.60645706547591e-12
1.31790244778622e-12
9.64634924313217e-13
5.5791851942613e-13
1.31845337748223e-13
6.8111507558706e-15
6.46902291953181e-13
3.33840462314473e-11
1.45933672453055e-10
2.5418632564477e-10
3.48952533020918e-10
4.26834669412888e-10
4.87074564719185e-10
5.30980079673991e-10
5.61174069477609e-10
5.80796218023004e-10
5.92866591415038e-10
5.99907220066852e-10
6.03808555016052e-10
6.05865998617989e-10
6.06900533744662e-10
6.07397377580204e-10
6.0762563852405e-10
6.07726083037951e-10
6.07768442723018e-10
6.07785547372535e-10
6.07792132665606e-10
6.07794520457703e-10
6.07795308757829e-10
6.07795521019453e-10
6.07795536188674e-10
6.07795469244679e-10
6.07795306794179e-10
6.07794879329069e-10
6.07793701185732e-10
6.07790529814643e-10
6.07782317315701e-10
6.07761873181359e-10
6.07712904050135e-10
6.07600024299892e-10
6.07349771497511e-10
6.06816788666966e-10
6.0572791427255e-10
6.0359756999432e-10
5.99613278591583e-10
5.92503299848997e-10
5.80420433761465e-10
5.60903045225896e-10
5.30993830450069e-10
4.87588858455036e-10
4.28034929908863e-10
3.50891166818798e-10
2.56657131697262e-10
1.48319085779915e-10
3.43249138411174e-11
6.75284086341449e-13
2.3003530160917e-12
6.01347913948222e-10
2.06686842486412e-07
3.59414947513487e-07
4.92324153295402e-07
6.01211877793136e-07
6.85293831372102e-07
7.46555721569029e-07
7.88720613619869e-07
8.16171549080382e-07
8.33101068575859e-07
8.43007183308454e-07
8.48516065522529e-07
8.51432671771529e-07
8.52905326262014e-07
8.53615662088253e-07
8.53943482059852e-07
8.54088411988438e-07
8.54149830930777e-07
8.54174762272823e-07
8.54184419107404e-07
8.54187948709094e-07
8.54189129475568e-07
8.5418945756333e-07
8.54189490211078e-07
8.54189397964367e-07
8.54189160420876e-07
8.54188533439959e-07
8.54186811913012e-07
8.54182198690571e-07
8.54170300790111e-07
8.54140791554737e-07
8.54070356147644e-07
8.53908548691323e-07
8.53551036056598e-07
8.52792167707896e-07
8.51246949036063e-07
8.48233584824486e-07
8.42615401991213e-07
8.32619005980704e-07
8.15675218452482e-07
7.88364951636509e-07
7.46577147896349e-07
6.85974824106285e-07
6.02794941225002e-07
4.94877355002818e-07
3.6266492754403e-07
2.09814774681805e-07
6.16802509285953e-10
2.38614404824508e-12
4.0804199647903e-12
1.07420835007454e-09
3.70551233330877e-07
6.42187338472671e-07
8.77189981839263e-07
1.06885490110531e-06
1.21636604250036e-06
1.32360045943859e-06
1.39730871064972e-06
1.44526765388453e-06
1.47484496750853e-06
1.4921595341505e-06
1.50179583142933e-06
1.50690290833607e-06
1.50948475040047e-06
1.51073184372854e-06
1.51130826905178e-06
1.51156354152024e-06
1.51167192519465e-06
1.51171601485937e-06
1.51173313694344e-06
1.51173941760782e-06
1.51174153133124e-06
1.51174212602531e-06
1.51174219256147e-06
1.51174203938487e-06
1.51174162832764e-06
1.51174054068714e-06
1.51173755226817e-06
1.51172953944262e-06
1.51170885888343e-06
1.51165752780373e-06
1.51153491508319e-06
1.51125305154416e-06
1.51062990004036e-06
1.50930649259745e-06
1.50661057662717e-06
1.50135127463437e-06
1.49154246008314e-06
1.47408362797179e-06
1.44447794087089e-06
1.39672778866424e-06
1.32359067231674e-06
1.21736057719918e-06
1.07122523674565e-06
8.81036713574639e-07
6.47077786070872e-07
3.75210373671533e-07
1.09671101439741e-09
4.20304192612313e-12
5.83953175098185e-12
1.53814899960794e-09
5.29452531933661e-07
9.14660936897973e-07
1.24625536299151e-06
1.51565777704687e-06
1.7224146310776e-06
1.87243313133697e-06
1.97543369483647e-06
2.04241886266452e-06
2.08372990528924e-06
2.10792237808037e-06
2.12139538467194e-06
2.12854215422822e-06
2.13215899826902e-06
2.13390816547836e-06
2.13471777143529e-06
2.13507686043579e-06
2.13522958677902e-06
2.13529184041729e-06
2.13531607789451e-06
2.13532500093876e-06
2.13532802277862e-06
2.13532888439406e-06
2.13532899244921e-06
2.13532878731407e-06
2.13532822138031e-06
2.13532671425324e-06
2.13532257088745e-06
2.13531145613622e-06
2.13528274985919e-06
2.13521144017584e-06
2.13504096311394e-06
2.13464875610059e-06
2.13378101983771e-06
2.13193697677246e-06
2.12817832529731e-06
2.12084213173176e-06
2.1071536677439e-06
2.08277863711139e-06
2.04142430416195e-06
1.97468208462614e-06
1.8723620861967e-06
1.72354693994269e-06
1.51844025115895e-06
1.2508041043588e-06
9.20443027150721e-07
5.3493078683361e-07
1.56460462360036e-09
5.98508357969799e-12
7.52851004448151e-12
1.98322982008672e-09
6.80747802354126e-07
1.17259057787138e-06
1.59411153629191e-06
1.93542532564283e-06
2.19673997483723e-06
2.3860419135728e-06
2.51589461930259e-06
2.60031114571467e-06
2.65237504881884e-06
2.68287607950703e-06
2.69987308699352e-06
2.70889667213413e-06
2.71346791233897e-06
2.71568119277045e-06
2.71670694894823e-06
2.71716257461288e-06
2.71735668334966e-06
2.71743596237451e-06
2.71746690766682e-06
2.71747834344632e-06
2.71748224242366e-06
2.7174833707753e-06
2.7174835266918e-06
2.7174832799273e-06
2.71748257635581e-06
2.71748068888709e-06
2.71747549892541e-06
2.71746157512344e-06
2.71742559805726e-06
2.71733616890824e-06
2.71712221968112e-06
2.71662964547857e-06
2.71553912059466e-06
2.71322022282445e-06
2.70849117403902e-06
2.69925665290158e-06
2.68201898814802e-06
2.651311680781e-06
2.59919143665265e-06
2.51502775412367e-06
2.38590043996914e-06
2.19788734031105e-06
1.93834095595485e-06
1.59891567578948e-06
1.17870480142947e-06
6.86536642049488e-07
2.0115421502938e-09
7.68749943446007e-12
9.11733744737815e-12
2.40201628740667e-09
8.22293629019608e-07
1.4126452856414e-06
1.91662244647714e-06
2.3235143566251e-06
2.6343956070716e-06
2.85930418257419e-06
3.01346711352263e-06
3.11366068455674e-06
3.17546131254029e-06
3.21168050872311e-06
3.23187637227625e-06
3.24260672122123e-06
3.24804775193802e-06
3.25068504304721e-06
3.25190882083057e-06
3.25245316505955e-06
3.2526854441302e-06
3.25278049783201e-06
3.25281769614302e-06
3.25283149653993e-06
3.25283623548637e-06
3.2528376289057e-06
3.25283783914178e-06
3.25283756036576e-06
3.25283673488498e-06
3.25283450459177e-06
3.25282837338971e-06
3.2528119287714e-06
3.25276942991689e-06
3.25266373897755e-06
3.25241073356932e-06
3.25182787615123e-06
3.25053670020641e-06
3.24778964766536e-06
3.242184761991e-06
3.23123542553741e-06
3.21078930160334e-06
3.17435385897973e-06
3.11248833346104e-06
3.01254222737128e-06
2.85910323744462e-06
2.63548477674096e-06
2.32637248898667e-06
1.92136553257153e-06
1.41869294109758e-06
8.28035416645145e-07
2.43071857719096e-09
9.28288485658008e-12
1.05852100384672e-11
2.78918057991248e-09
9.52550579600651e-07
1.63254242461843e-06
2.21106818271419e-06
2.67697682588869e-06
3.03232901366238e-06
3.28912606547736e-06
3.46504317306462e-06
3.57935477713461e-06
3.64987361554231e-06
3.69121850195032e-06
3.71428611492787e-06
3.72655153891622e-06
3.73277655485312e-06
3.73579696612513e-06
3.73720016436311e-06
3.73782514674666e-06
3.73809224790255e-06
3.7382017589253e-06
3.73824472454076e-06
3.73826072772327e-06
3.73826626342223e-06
3.73826791841536e-06
3.73826818993826e-06
3.7382678871453e-06
3.73826695381807e-06
3.73826441627912e-06
3.73825744492834e-06
3.73823875818259e-06
3.73819046623025e-06
3.7380703294765e-06
3.73778260323772e-06
3.73711940158082e-06
3.73564947095456e-06
3.73252060088944e-06
3.72613396842066e-06
3.71365287510681e-06
3.6903389757866e-06
3.64878081363676e-06
3.57819538140699e-06
3.46411880480857e-06
3.28889472228744e-06
3.03333176209569e-06
2.67966719497975e-06
2.21555089732181e-06
1.63826491880531e-06
9.58010420578721e-07
2.81727498971953e-09
1.0752334950198e-11
1.19188954695213e-11
3.14130305988202e-09
1.07057747304488e-06
1.83100127582343e-06
2.47604952195728e-06
2.99442018993852e-06
3.38920750438866e-06
3.67424390444703e-06
3.86941656011765e-06
3.99622727589247e-06
4.07447046181383e-06
4.12036216905615e-06
4.14598120009334e-06
4.15961303478496e-06
4.16653741163798e-06
4.16990042802244e-06
4.17146451688871e-06
4.1721620375538e-06
4.17246057956934e-06
4.17258320517202e-06
4.17263143648843e-06
4.1726494716235e-06
4.17265575565431e-06
4.17265766634326e-06
4.17265800479673e-06
4.17265768569779e-06
4.17265665706837e-06
4.1726538457085e-06
4.1726461299078e-06
4.17262546597183e-06
4.17257207628992e-06
4.17243923248319e-06
4.17212094974953e-06
4.1713869799046e-06
4.16975945044631e-06
4.1662936454183e-06
4.15921660494649e-06
4.14538180797384e-06
4.11953208349362e-06
4.07344208868443e-06
3.99513933369511e-06
3.86855117683746e-06
3.67402580068805e-06
3.39013372038357e-06
2.99690149064694e-06
2.48017293160031e-06
1.83625842343842e-06
1.07562150707803e-06
3.16816779341891e-09
1.20841693354581e-11
1.31116879693844e-11
3.45663136026657e-09
1.17596014721526e-06
2.00759788601864e-06
2.71127269563838e-06
3.27573474599771e-06
3.70510256039604e-06
4.01487849398179e-06
4.22691707370876e-06
4.36468025144509e-06
4.44969801266842e-06
4.49958260622872e-06
4.52744584937003e-06
4.54228187075305e-06
4.5498239264885e-06
4.55349027833406e-06
4.55519721071622e-06
4.55595933637287e-06
4.55628598523977e-06
4.55642039015994e-06
4.5564733822678e-06
4.55649327344615e-06
4.55650025320997e-06
4.55650241037391e-06
4.556502819807e-06
4.5565024916214e-06
4.55650137928537e-06
4.55649832537672e-06
4.55648995481915e-06
4.55646756219314e-06
4.55640972808056e-06
4.55626581431355e-06
4.55592090516493e-06
4.5551252262532e-06
4.55336015742328e-06
4.54960006194632e-06
4.54191955611027e-06
4.52690080771141e-06
4.4988321719065e-06
4.44877518977817e-06
4.36371479026775e-06
4.22616718106607e-06
4.014727222727e-06
3.70599151815782e-06
3.27802058189779e-06
2.71501860830735e-06
2.01234468014506e-06
1.18053547887707e-06
3.48194963470705e-09
1.32729827733294e-11
1.41623625921838e-11
3.73481364802552e-09
1.26872099096708e-06
2.162599705055e-06
2.91731907090679e-06
3.52181246361448e-06
3.98117156401146e-06
4.31239117128772e-06
4.53904973061742e-06
4.68631250316948e-06
4.77721215576197e-06
4.83056824896676e-06
4.86038592748401e-06
4.87627269279839e-06
4.88435491030982e-06
4.88828718591711e-06
4.89011969157991e-06
4.89093879079668e-06
4.8912903192076e-06
4.89143520037002e-06
4.891492454612e-06
4.8915140244805e-06
4.89152164440235e-06
4.89152403585775e-06
4.8915245185094e-06
4.8915241873414e-06
4.89152300230434e-06
4.89151973504496e-06
4.8915107931816e-06
4.89148690247188e-06
4.8914252299762e-06
4.89127176667102e-06
4.89090388720825e-06
4.89005494268318e-06
4.88817106580278e-06
4.88415656978311e-06
4.87595404935045e-06
4.85991058723778e-06
4.82992065572685e-06
4.77642766065002e-06
4.68551263522314e-06
4.53846776026339e-06
4.31236521773572e-06
3.98208244572579e-06
3.523956302636e-06
2.92072948366727e-06
2.1668629483801e-06
1.27283655334597e-06
3.75850935363352e-09
1.43186197118672e-11
1.50741593880098e-11
3.97664352297791e-09
1.34923299061229e-06
2.29681681820015e-06
3.09544516273586e-06
3.73430838848037e-06
4.2193917371185e-06
4.56899909550087e-06
4.80819787370034e-06
4.96361503736019e-06
5.05956939167704e-06
5.11591311192859e-06
5.14741572330249e-06
5.16421014397712e-06
5.17276000784481e-06
5.17692308101116e-06
5.17886487622948e-06
5.17973371802186e-06
5.18010704975032e-06
5.18026115538948e-06
5.18032218727006e-06
5.18034526013336e-06
5.18035346291514e-06
5.18035607421511e-06
5.18035663025012e-06
5.18035630106963e-06
5.18035505354675e-06
5.18035160016971e-06
5.18034216416313e-06
5.18031698737778e-06
5.18025203254909e-06
5.18009041485153e-06
5.17970292360254e-06
5.17880848112907e-06
5.17682305497571e-06
5.17259096596893e-06
5.16394168460536e-06
5.14702079105167e-06
5.11538508218003e-06
5.05894799816935e-06
4.96301554914105e-06
4.80783012131417e-06
4.56915686793045e-06
4.22039435001702e-06
3.73638891687265e-06
3.09860246878791e-06
2.30067296616785e-06
1.35294162052193e-06
3.99882001189614e-09
1.52251604028309e-11
1.58538415337248e-11
4.1838262604129e-09
1.41814333468414e-06
2.41147479815792e-06
3.24741618374109e-06
3.91544560733511e-06
4.42234529592286e-06
4.78754720163727e-06
5.03738663383776e-06
5.19972925467943e-06
5.2999818650424e-06
5.35887000543425e-06
5.39181016658244e-06
5.40938055426865e-06
5.41833112214138e-06
5.4226924521091e-06
5.42472839080705e-06
5.4256402177279e-06
5.42603246156207e-06
5.42619460641364e-06
5.42625895217211e-06
5.42628335673919e-06
5.42629208450721e-06
5.42629489938104e-06
5.42629552709765e-06
5.42629520376391e-06
5.42629390319651e-06
5.42629028903382e-06
5.4262804297565e-06
5.42625416000699e-06
5.42618642757052e-06
5.42601792092641e-06
5.42561386597916e-06
5.42468098312139e-06
5.42260970864528e-06
5.41819355300362e-06
5.40916613040907e-06
5.39150222565006e-06
5.35847237889934e-06
5.29954075428163e-06
5.19935634778266e-06
5.03727149755056e-06
4.78794261312759e-06
4.42351171782777e-06
3.91755351288829e-06
3.2504253448061e-06
2.41503005804808e-06
1.4215255745437e-06
4.20470900101515e-09
1.59999836669626e-11
1.65108188639845e-11
4.35876030347489e-09
1.47630398062832e-06
2.50810239660233e-06
3.37536181739181e-06
4.06784844378024e-06
4.59303730791323e-06
4.97131597981854e-06
5.2300842888677e-06
5.39824434566579e-06
5.50211239564993e-06
5.56314420817271e-06
5.59729775126684e-06
5.61552446772698e-06
5.62481474136703e-06
5.62934457593725e-06
5.63146075617181e-06
5.63240933782713e-06
5.63281781344036e-06
5.63298689080394e-06
5.63305411287779e-06
5.63307968469864e-06
5.63308887997272e-06
5.63309188072955e-06
5.63309257701324e-06
5.63309226247017e-06
5.63309091754576e-06
5.63308716603739e-06
5.63307694806935e-06
5.63304975951968e-06
5.6329797025599e-06
5.63280544130302e-06
5.63238755533867e-06
5.63142256450867e-06
5.62927954399877e-06
5.62470946554637e-06
5.61536565484946e-06
5.59707979911275e-06
5.562882574832e-06
5.50186168592173e-06
5.39811563536523e-06
5.23025101168367e-06
4.97199492678491e-06
4.59443498800027e-06
4.0700753374029e-06
3.37833531643604e-06
2.51147583323536e-06
1.47945412399144e-06
4.37864547892009e-09
1.66529049648768e-11
1.70563214226266e-11
4.5043284013021e-09
1.52470652894823e-06
2.58842815841383e-06
3.48164501194731e-06
4.19439184998027e-06
4.73473199802265e-06
5.12384920801506e-06
5.39002453416265e-06
5.56301618325399e-06
5.66989134969554e-06
5.73270917245329e-06
5.76787559425162e-06
5.78665135744601e-06
5.7962264786353e-06
5.80089797190258e-06
5.8030818025607e-06
5.8040614714291e-06
5.8044837277843e-06
5.80465871868405e-06
5.80472841017625e-06
5.80475499381475e-06
5.80476460054824e-06
5.80476776876055e-06
5.80476852945377e-06
5.80476822581176e-06
5.80476684446461e-06
5.80476297714361e-06
5.80475245879882e-06
5.80472450685901e-06
5.80465252739885e-06
5.8044735159921e-06
5.80404421823762e-06
5.80305272853893e-06
5.80085046380307e-06
5.79615320826658e-06
5.78654784324748e-06
5.76774759880211e-06
5.7325845663044e-06
5.66983477874327e-06
5.56314102696639e-06
5.39049258394598e-06
5.12484716544781e-06
4.73641863632663e-06
4.19682174776222e-06
3.48469106561878e-06
2.59173827365187e-06
1.52772130932005e-06
4.5235395567893e-09
1.7195375404283e-11
1.750262626822e-11
4.62369937593047e-09
1.56442108625382e-06
2.65428449417445e-06
3.568741036914e-06
4.29806307168937e-06
4.85080265547586e-06
5.24879611104184e-06
5.52104367017742e-06
5.69800141293462e-06
5.80734886314171e-06
5.87163766305851e-06
5.90763996862969e-06
5.92686983435294e-06
5.93668111420046e-06
5.94147036234481e-06
5.94371059126024e-06
5.94471626117036e-06
5.94515008748053e-06
5.94533006676484e-06
5.94540185474824e-06
5.94542930557759e-06
5.94543927018923e-06
5.94544258729526e-06
5.94544340747411e-06
5.94544311611728e-06
5.94544170553001e-06
5.94543774198909e-06
5.94542697537893e-06
5.94539839717102e-06
5.94532484767082e-06
5.94514196451542e-06
5.94470336937043e-06
5.94369028460786e-06
5.94143971234411e-06
5.93663869339542e-06
5.92681980656905e-06
5.90759944116839e-06
5.87164731780808e-06
5.80748463286361e-06
5.69838159524981e-06
5.52182281069254e-06
5.250136933932e-06
4.85282299012984e-06
4.30076659885545e-06
3.57195524560471e-06
2.65763946754617e-06
1.56739122107423e-06
4.64255358858995e-09
1.76397425572342e-11
1.78623581529699e-11
4.7201466706776e-09
1.5965406450434e-06
2.70752108017402e-06
3.63912871936615e-06
4.38183744995672e-06
4.94459693633337e-06
5.34976968662289e-06
5.62693441115861e-06
5.80710842180827e-06
5.91846408481914e-06
5.98394998952871e-06
6.02063396701926e-06
6.0402350031963e-06
6.05023979223394e-06
6.05512579022663e-06
6.05741249461491e-06
6.05843966199041e-06
6.05888309112097e-06
6.05906723041199e-06
6.05914077797532e-06
6.05916896348888e-06
6.05917923568628e-06
6.05918268348663e-06
6.05918355776669e-06
6.05918327949512e-06
6.05918184610004e-06
6.05917780396684e-06
6.05916683514783e-06
6.05913775027253e-06
6.05906293604198e-06
6.05887693980888e-06
6.05843087184747e-06
6.05740042388715e-06
6.05511098626571e-06
6.05022642862555e-06
6.0402355303581e-06
6.02067654176331e-06
5.98408814248831e-06
5.91878585025766e-06
5.8077391731478e-06
5.628025435016e-06
5.35146557861243e-06
4.94698138285264e-06
4.38486868619596e-06
3.6425890511223e-06
2.71101257635959e-06
1.59954522452733e-06
4.73893079850453e-09
1.79985897827337e-11
1.81478890434303e-11
4.79689095102548e-09
1.62213298548298e-06
2.74993041301858e-06
3.69519721240963e-06
4.44857207542583e-06
5.01932154273491e-06
5.43022537295421e-06
5.71132062595891e-06
5.89406958926728e-06
6.00703590053296e-06
6.07348382867905e-06
6.11071681230729e-06
6.13061749448537e-06
6.1407789070602e-06
6.14574343231257e-06
6.14806797404506e-06
6.14911270289813e-06
6.14956400755854e-06
6.14975157511759e-06
6.14982658215562e-06
6.14985538278925e-06
6.14986591620066e-06
6.14986947730268e-06
6.14987040013486e-06
6.14987013530613e-06
6.14986868479616e-06
6.14986457974246e-06
6.14985344897004e-06
6.14982396058915e-06
6.14974814308174e-06
6.14955968133919e-06
6.14910769608637e-06
6.148063492016e-06
6.14574323881208e-06
6.14079239033476e-06
6.13066489194186e-06
6.11083681904764e-06
6.07374254969332e-06
6.00753386506282e-06
5.89494087727147e-06
5.71271665478241e-06
5.4322778795881e-06
5.02208647954719e-06
4.45196776361067e-06
3.69896198363004e-06
2.75363061962158e-06
1.62523648636741e-06
4.81584758166341e-09
1.82841747462196e-11
1.8370854842956e-11
4.85697213199301e-09
1.64220161057313e-06
2.78318767540347e-06
3.73917090001047e-06
4.5009202372852e-06
5.07794948191472e-06
5.49336345780226e-06
5.77755655275328e-06
5.96233845764289e-06
6.07657883875732e-06
6.14378937589286e-06
6.18145857644469e-06
6.20159794522882e-06
6.21188445813909e-06
6.21691189037624e-06
6.21926684017496e-06
6.22032573251746e-06
6.22078341485062e-06
6.22097377255107e-06
6.22104997530807e-06
6.22107928473794e-06
6.22109003734005e-06
6.221093695516e-06
6.22109466141468e-06
6.2210944100412e-06
6.22109294738144e-06
6.22108879317072e-06
6.22107753525966e-06
6.22104773147102e-06
6.22097113233971e-06
6.22078075213307e-06
6.22032416166202e-06
6.21926924244001e-06
6.21692495941214e-06
6.21192236051537e-06
6.20168811701077e-06
6.18164958898684e-06
6.14415939039396e-06
6.07724090177491e-06
5.96343646131597e-06
5.77924475981894e-06
5.49576526246681e-06
5.08109886146971e-06
4.50470092593036e-06
3.74327923462907e-06
2.78714904044006e-06
1.64545314293214e-06
4.87629405983899e-09
1.85079817744334e-11
1.85417951966761e-11
4.90315279676994e-09
1.65765624173427e-06
2.808805598454e-06
3.77305323639998e-06
4.54126756968207e-06
5.12315090628226e-06
5.54205631601772e-06
5.82865164241237e-06
6.01501302716866e-06
6.13024539605987e-06
6.19805108506098e-06
6.23606158033474e-06
6.25638820916835e-06
6.26677315877407e-06
6.27185024771198e-06
6.27422928355104e-06
6.2752994375327e-06
6.27576221305765e-06
6.27595481084096e-06
6.27603198036245e-06
6.27606170533386e-06
6.27607263966944e-06
6.27607638010279e-06
6.27607738382628e-06
6.27607714567864e-06
6.27607567514847e-06
6.27607148373504e-06
6.27606012853431e-06
6.27603008399911e-06
6.27595288976658e-06
6.27576104970769e-06
6.27530095191952e-06
6.27423785975827e-06
6.27187521697551e-06
6.26683301372112e-06
6.25651695770611e-06
6.23631692441711e-06
6.1985225595864e-06
6.13105829478396e-06
6.01632169147903e-06
5.83061522812677e-06
5.54479357393976e-06
5.12667880619935e-06
4.54544017136149e-06
3.77752737746015e-06
2.81306261864305e-06
1.66109052454727e-06
4.92298430862167e-09
1.86803911887599e-11
1.86699097142588e-11
4.9378516190354e-09
1.66929242975086e-06
2.82810353545349e-06
3.79858848696626e-06
4.57168870473556e-06
5.15724625308205e-06
5.57879914677585e-06
5.86721968007657e-06
6.05478381657038e-06
6.17077342176569e-06
6.2390346373744e-06
6.27730711646353e-06
6.29777793948622e-06
6.30823894247431e-06
6.31335453550792e-06
6.31575232085689e-06
6.31683127910626e-06
6.31729805604699e-06
6.31749242424334e-06
6.31757036385063e-06
6.31760042354968e-06
6.31761150671909e-06
6.31761531613562e-06
6.31761635281609e-06
6.31761612750697e-06
6.31761465274472e-06
6.31761043440724e-06
6.3175990073586e-06
6.3175687851229e-06
6.31749115228674e-06
6.31729823568614e-06
6.31683554609293e-06
6.31576639776025e-06
6.31339011146918e-06
6.30831839832429e-06
6.29794123601508e-06
6.27762032217376e-06
6.23959789741532e-06
6.17172380956881e-06
6.05628638384432e-06
5.8694399249244e-06
5.58185407977403e-06
5.1611399603063e-06
4.57624992178265e-06
3.8034372947624e-06
2.83267589879614e-06
1.67293194168442e-06
4.95829459042977e-09
1.88104574056842e-11
1.8762913907224e-11
4.96310272588698e-09
1.67777904642001e-06
2.8421887640199e-06
3.81723884012605e-06
4.59392152137624e-06
5.18217851946605e-06
5.60568088399574e-06
5.89544875826314e-06
6.08390320344153e-06
6.20045504279914e-06
6.26905560212979e-06
6.30752394846969e-06
6.32810299397989e-06
6.33862131518744e-06
6.34376605660399e-06
6.34617810397151e-06
6.34726379461646e-06
6.34773364970333e-06
6.34792938970307e-06
6.34800793169283e-06
6.34803825675347e-06
6.34804946023285e-06
6.34805332694993e-06
6.34805439218701e-06
6.34805417924198e-06
6.34805270330421e-06
6.348048466827e-06
6.34803698960509e-06
6.34800664305618e-06
6.3479287034744e-06
6.34773503207905e-06
6.34727051701769e-06
6.34619708049786e-06
6.34381108271088e-06
6.33871826237933e-06
6.32829720554522e-06
6.30788913659288e-06
6.26970175838647e-06
6.20153045496163e-06
6.08558362899952e-06
5.89790699174399e-06
5.60903437566915e-06
5.18642176074293e-06
4.59886161371942e-06
3.82246183631685e-06
2.8470851721339e-06
1.68163680627369e-06
4.98422549422969e-09
1.8905778592523e-11
1.88269722818462e-11
4.98053536501766e-09
1.68365195738421e-06
2.85194732654964e-06
3.83017346907939e-06
4.60935504905611e-06
5.19950037411036e-06
5.62437074306168e-06
5.9150874123011e-06
6.10417126160406e-06
6.22112229103605e-06
6.2899649209807e-06
6.32857370262058e-06
6.34923076932123e-06
6.35979065594864e-06
6.36495666730429e-06
6.36737919168402e-06
6.36846986416645e-06
6.36894201582688e-06
6.36913878945398e-06
6.36921779116207e-06
6.36924832235236e-06
6.36925962163948e-06
6.36926353552641e-06
6.36926462541783e-06
6.36926442431154e-06
6.3692629497362e-06
6.36925870261502e-06
6.36924719381493e-06
6.3692167687242e-06
6.36913863512798e-06
6.368944483117e-06
6.36847879350396e-06
6.36740256594535e-06
6.36501017704602e-06
6.3599033271378e-06
6.34945283973116e-06
6.32898589743957e-06
6.29068638575386e-06
6.22231195825856e-06
6.10601543632362e-06
5.91776675939859e-06
5.62800470737034e-06
5.20407635173408e-06
4.61466147775798e-06
3.83576485473739e-06
2.85716939052081e-06
1.6877344396931e-06
5.00238249430702e-09
1.89724356549047e-11
1.88666839101217e-11
4.99136763099194e-09
1.68731198556839e-06
2.85804142944887e-06
3.83826575689099e-06
4.61902665881399e-06
5.21037133166794e-06
5.63611535609093e-06
5.92744169226379e-06
6.11693275844996e-06
6.23414403030878e-06
6.30314577494028e-06
6.34184769007043e-06
6.3625569927131e-06
6.37314498908524e-06
6.37832553799841e-06
6.3807553037832e-06
6.38184946116294e-06
6.38232324089901e-06
6.38252075887633e-06
6.38260009828238e-06
6.38263078495486e-06
6.38264215909561e-06
6.38264611146225e-06
6.38264722260871e-06
6.38264703279853e-06
6.38264556168155e-06
6.3826413103609e-06
6.38262978622606e-06
6.38259932283335e-06
6.3825210943796e-06
6.38232670235051e-06
6.38186040736236e-06
6.38078269282254e-06
6.37838679383767e-06
6.37327203310334e-06
6.36280457753446e-06
6.34230305559024e-06
6.3039366577758e-06
6.23543951237236e-06
6.11892948074185e-06
5.93032848956404e-06
5.64001469770271e-06
5.21526528724274e-06
4.624687222119e-06
3.84421793153903e-06
2.86358713495992e-06
1.69162175492706e-06
5.01396894354978e-09
1.90149767239197e-11
1.88850971376093e-11
4.99640832026191e-09
1.68902536280821e-06
2.8609105608584e-06
3.84209501509139e-06
4.62362423932657e-06
5.21556027036259e-06
5.64174151288149e-06
5.93337802785944e-06
6.12308007463979e-06
6.24042889554614e-06
6.30951652324507e-06
6.34826984018362e-06
6.36900864984296e-06
6.37961290907819e-06
6.38480207736066e-06
6.38723624636906e-06
6.38833257974147e-06
6.38880740599606e-06
6.38900541887116e-06
6.38908499239934e-06
6.38911579276545e-06
6.38912722527e-06
6.38913120971241e-06
6.38913233972355e-06
6.38913216075219e-06
6.3891306944438e-06
6.38912644371264e-06
6.38911491755577e-06
6.38908445082787e-06
6.38900621625678e-06
6.38881180213853e-06
6.38834541893638e-06
6.38726740093705e-06
6.3848705987172e-06
6.37975344309644e-06
6.36928021106538e-06
6.34876584628293e-06
6.31037291142606e-06
6.24182453495914e-06
6.12522175749031e-06
5.93646286527551e-06
5.64589558910779e-06
5.22076142043868e-06
4.62962945750466e-06
3.84840125119811e-06
2.8667769073138e-06
1.69356309997463e-06
5.01978588048729e-09
1.90364250217556e-11
1.88837303072609e-11
4.99606081888699e-09
1.68892493922696e-06
2.86077383370214e-06
3.84194985635751e-06
4.62349033916349e-06
5.21545003828564e-06
5.6416610037084e-06
5.93332816705099e-06
6.12305815701059e-06
6.24043015949842e-06
6.30953553145843e-06
6.34830149927101e-06
6.36904875844615e-06
6.37965833409963e-06
6.38485067050834e-06
6.3872866382753e-06
6.38838395212735e-06
6.38885929705088e-06
6.38905758049083e-06
6.38913729638657e-06
6.38916817435952e-06
6.38917965158284e-06
6.38918366311073e-06
6.38918481018806e-06
6.38918464161651e-06
6.38918318100406e-06
6.38917893474376e-06
6.38916741847929e-06
6.38913698126312e-06
6.38905882569404e-06
6.38886460000377e-06
6.38839862831719e-06
6.38732144736998e-06
6.38492624398088e-06
6.37981196446597e-06
6.36934360422187e-06
6.34883699353053e-06
6.3104556133237e-06
6.24192327305506e-06
6.12534106785649e-06
5.93660627856746e-06
5.64606422211165e-06
5.22095243017862e-06
4.62983460973976e-06
3.84860575553158e-06
2.86695846102667e-06
1.69369082133642e-06
5.02023396168137e-09
1.90382920910538e-11
1.88625945186442e-11
4.99032849138271e-09
1.68701168307853e-06
2.85763213033577e-06
3.83783072675736e-06
4.61862496056773e-06
5.21004040134729e-06
5.63587365134291e-06
5.92729224572408e-06
6.11686760765356e-06
6.23414892640627e-06
6.30320437513281e-06
6.34194461503258e-06
6.36267953673098e-06
6.37328366319536e-06
6.37847382864985e-06
6.38090905571115e-06
6.38200618990091e-06
6.38248154376521e-06
6.3826798821798e-06
6.38275965261978e-06
6.38279057373051e-06
6.38280208259097e-06
6.38280611633612e-06
6.3828072786472e-06
6.38280711998217e-06
6.38280566597536e-06
6.38280142830597e-06
6.38278993457828e-06
6.38275956153484e-06
6.38268157420557e-06
6.38248775630373e-06
6.38202271391605e-06
6.38094754549739e-06
6.37855650700044e-06
6.37345048465544e-06
6.36299782116509e-06
6.3425198239215e-06
6.30418844581662e-06
6.23573984008307e-06
6.1192919736177e-06
5.93076365241312e-06
5.64052565424537e-06
5.21584314243176e-06
4.62530682238948e-06
3.8448344834747e-06
2.86413347908286e-06
1.69200536370159e-06
5.01531302821625e-09
1.90205740026832e-11
1.88202085772291e-11
4.97881811241119e-09
1.68315535614169e-06
2.85126874364559e-06
3.82945039041314e-06
4.60868587820688e-06
5.19894823517196e-06
5.6239674020319e-06
5.91483879874038e-06
6.10406463562768e-06
6.22113405970902e-06
6.29006771217921e-06
6.32874159219147e-06
6.34944225137285e-06
6.36002962151356e-06
6.36521203440105e-06
6.36764387918673e-06
6.36873963319415e-06
6.36921447122636e-06
6.36941264364506e-06
6.36949237884771e-06
6.36952330779145e-06
6.36953483474696e-06
6.3695388855399e-06
6.36954006108851e-06
6.36953991183526e-06
6.36953846560381e-06
6.3695342414024e-06
6.36952278468565e-06
6.36949251474532e-06
6.36941479476611e-06
6.36922162650109e-06
6.36875808124922e-06
6.36768620899479e-06
6.36530212736404e-06
6.36021019813083e-06
6.34978493764138e-06
6.32935805394834e-06
6.29111805803191e-06
6.22282591389531e-06
6.10663442155638e-06
5.91850797006328e-06
5.62887257706963e-06
5.20505483183698e-06
4.61570716797287e-06
3.83680176464339e-06
2.85808491542244e-06
1.68837496804179e-06
5.00462198880588e-09
1.89817598632884e-11
1.87535827953741e-11
4.96073642171798e-09
1.67709384004851e-06
2.84124843587547e-06