/*--------------------------------*- C++ -*----------------------------------*\
  =========                 |
  \\      /  F ield         | OpenFOAM: The Open Source CFD Toolbox
   \\    /   O peration     | Website:  https://openfoam.org
    \\  /    A nd           | Version:  10
     \\/     M anipulation  |
\*---------------------------------------------------------------------------*/
FoamFile
{
    format      ascii;
    class       volScalarField;
    location    "7.8";
    object      h;
}
// * * * * * * * * * * * * * * * * * * * * * * * * * * * * * * * * * * * * * //

dimensions      [0 2 -2 0 0 0 0];

internalField   nonuniform List<scalar> 
2500
(
6228.09148114377
6224.89072375054
6214.96827867873
6207.13852393049
6202.02138991752
6198.89717443151
6197.05392311884
6195.995300741
6195.40594122228
6195.09033756653
6194.92651462107
6194.84511344822
6194.80622738197
6194.78779241958
6194.77914913893
6194.77481758002
6194.77289777014
6194.77166402109
6194.7706769227
6194.77004836535
6194.76955467612
6194.76914947094
6194.7688261149
6194.76862622285
6194.76842729049
6194.76827213864
6194.7682218577
6194.76822296519
6194.76828731028
6194.76842624686
6194.76866688387
6194.76912358407
6194.76975721841
6194.77083617626
6194.77287489948
6194.77707451716
6194.78605348658
6194.80515886257
6194.84619788205
6194.93001231176
6195.09641750199
6195.41532411717
6196.00499842076
6197.05908415849
6198.89290727595
6202.0018396076
6207.11831779591
6214.99122130585
6224.96849315256
6227.99676124039
5434.08084003045
5412.49767809382
5383.47765638343
5361.27289776072
5346.56835886172
5337.39718161646
5331.85202137903
5328.58617927695
5326.72055914688
5325.69234606609
5325.14661132881
5324.86846231273
5324.73230279863
5324.66797053676
5324.63856808264
5324.6254081866
5324.61974795473
5324.6171683912
5324.61583833118
5324.61513035046
5324.61467446555
5324.61433261587
5324.61406841411
5324.61388947412
5324.61373212979
5324.61360793735
5324.61354906953
5324.61353007629
5324.61355589559
5324.61365841601
5324.61390831037
5324.61448788115
5324.61572341599
5324.61846693212
5324.62466107825
5324.63871366838
5324.67000730424
5324.73764730324
5324.8793359459
5325.16471188585
5325.71856094865
5326.75374087362
5328.6193163238
5331.87165049042
5337.3868460757
5346.52333520279
5361.24350733842
5383.59669274584
5412.82390793776
5433.6681495523
4608.19073776473
4568.18811884189
4525.72865300569
4494.45032251096
4473.96805097549
4461.25899349518
4453.59558530157
4449.08684242731
4446.50993379676
4445.08684414927
4444.32983818451
4443.94280781263
4443.75271709662
4443.66286707437
4443.62193073903
4443.60387535374
4443.59619531714
4443.59292520765
4443.59146421058
4443.59077851804
4443.59039766686
4443.59013602944
4443.58993928712
4443.58980223953
4443.58968995042
4443.58960001718
4443.58954764221
4443.58951926641
4443.58951671563
4443.58958406286
4443.58981391208
4443.59042912922
4443.59195114707
4443.59555578761
4443.6039591213
4443.62332531137
4443.6667447265
4443.76082997916
4443.95755376696
4444.35340304452
4445.12037003417
4446.55164771129
4449.12860585679
4453.62159875605
4461.25116178045
4473.93090577106
4494.47199857043
4526.0281138298
4568.93055568564
4608.24220544165
3846.24409784659
3795.46804166626
3749.14721800392
3716.38386980464
3695.48933949739
3682.81858849864
3675.33622487823
3671.01413716399
3668.58225793918
3667.25678645044
3666.55962803687
3666.20662197963
3666.03470484675
3665.95411858132
3665.91772410703
3665.9018583256
3665.89519319738
3665.89243965749
3665.89128230859
3665.89077650342
3665.89051794953
3665.89034679435
3665.89021690882
3665.89012492214
3665.89005294302
3665.8899938776
3665.88995351183
3665.88992338924
3665.88990335833
3665.88992344869
3665.89006544896
3665.89052430402
3665.89176953242
3665.89481467202
3665.90203101238
3665.91890112789
3665.95717904708
3666.04101480251
3666.21805789762
3666.57812061834
3667.28366033955
3668.61671773726
3671.05068868961
3675.36357394164
3682.82572800789
3695.49391315069
3716.50073094569
3749.65335461986
3796.6533174366
3847.26910177344
3210.91830194019
3158.87088758416
3116.10398938379
3087.02243154701
3068.9948919541
3058.33195044109
3052.17481967764
3048.68596273543
3046.75366558307
3045.71374749439
3045.17232729338
3044.90040940494
3044.76886029783
3044.7075576188
3044.68003263705
3044.66812242339
3044.66316685594
3044.66116334249
3044.66035900252
3044.6600312278
3044.6598784993
3044.65978116486
3044.65970505203
3044.65965055605
3044.65960981815
3044.65957513239
3044.65954749243
3044.65952134451
3044.65949770083
3044.65949093016
3044.65955434526
3044.65984232889
3044.66072317816
3044.66293326262
3044.66822611776
3044.68073431379
3044.70937524965
3044.77262583001
3044.90729439551
3045.18364111479
3045.73057266124
3046.77592663463
3048.71082052957
3052.19616710607
3058.34650582204
3069.02960662023
3087.20217134789
3116.72995735847
3160.34365203312
3212.85116998126
2726.16269030859
2680.25838401906
2645.42000872625
2622.59043624652
2608.83562494861
2600.90228164297
2596.42320303202
2593.93290185102
2592.57436931423
2591.85169497707
2591.47873965966
2591.29265428449
2591.20306854958
2591.16148364276
2591.14288101261
2591.13487171712
2591.13156544323
2591.13025317567
2591.12974776667
2591.1295572853
2591.12947958773
2591.12943340113
2591.12939481065
2591.12936675579
2591.12934716692
2591.12932931
2591.12931219206
2591.12929222965
2591.12927007675
2591.1292562486
2591.12927083706
2591.12942215298
2591.12998233344
2591.13142401456
2591.1349043323
2591.14320264366
2591.16233763106
2591.20486015817
2591.29597462615
2591.48429432995
2591.86015310812
2592.58588959267
2593.94626928223
2596.4358091715
2600.91554961513
2608.87866696248
2622.78053979392
2646.04639159509
2681.77610595638
2728.58624822793
2384.6044695191
2348.61254477565
2322.99457991999
2306.77551909071
2297.27125242971
2291.92362713014
2288.97042176765
2287.35853395874
2286.49176577316
2286.03556086731
2285.80189636279
2285.68591133762
2285.63026492873
2285.60449585768
2285.59299341483
2285.58805800458
2285.58603445009
2285.58524522449
2285.58495367242
2285.58485348222
2285.58482060521
2285.58480468963
2285.58478913046
2285.58477723277
2285.584770245
2285.58476261615
2285.58475296535
2285.58473918419
2285.58472140627
2285.58470593189
2285.58470142562
2285.5847698359
2285.58509132768
2285.58595455709
2285.58805450992
2285.59310045614
2285.6047981723
2285.63091173214
2285.68713301044
2285.80398543568
2286.03882628636
2286.49631718817
2287.36384999677
2288.97552955477
2291.93138845513
2297.30691990041
2306.93625563055
2323.52888349322
2349.96185433111
2387.03665756328
2160.73871707909
2135.14574862481
2117.88481978291
2107.30077479521
2101.26226366701
2097.94545703979
2096.15281661128
2095.19177675509
2094.6820419677
2094.41636396154
2094.28117041293
2094.21433379273
2094.18233972524
2094.16754161492
2094.16094323925
2094.15811867116
2094.15696761815
2094.15652634624
2094.15637073702
2094.1563229913
2094.15631145597
2094.15631040027
2094.15630750003
2094.15630391148
2094.15630365047
2094.15630159647
2094.15629673074
2094.1562880205
2094.15627533563
2094.15626201689
2094.15625273022
2094.15627760578
2094.15644668834
2094.15692694304
2094.15810619526
2094.16095936818
2094.1675997292
2094.18246911026
2094.21458891033
2094.28162688553
2094.41710826826
2094.68306986663
2095.19276308038
2096.15328055213
2097.94777096668
2101.28498004081
2107.41596852002
2118.28553047586
2136.20805915306
2162.82992585524
2023.41280398311
2006.68133415124
1995.90803141239
1989.49550477155
1985.92929919765
1984.01545059014
1983.00251546655
1982.46888132499
1982.18955603053
1982.04528734449
1981.97229048546
1981.93631416698
1981.9191150808
1981.91116233044
1981.90761704174
1981.90610183959
1981.90548794649
1981.90525672881
1981.90517961691
1981.9051613159
1981.90516084197
1981.90516322297
1981.90516413817
1981.90516424516
1981.90516553132
1981.90516541373
1981.90516308425
1981.90515808523
1981.90514984374
1981.90514009875
1981.9051318334
1981.90513790198
1981.90521989075
1981.90546995539
1981.90609238231
1981.90760757628
1981.91114347621
1981.91907532055
1981.93624410363
1981.97218084746
1982.04512435488
1982.18926183752
1982.46816616472
1983.00094930072
1984.01434585281
1985.94052088684
1989.56751252979
1996.17767764089
2007.43580051281
2025.00790575398
1944.15113783405
1933.99241143397
1927.71069638544
1924.07357141484
1922.09947107706
1921.06345816783
1920.52617774917
1920.24791645694
1920.10411736557
1920.0304803848
1919.9934079937
1919.97517965524
1919.96646988997
1919.96244076998
1919.96064387861
1919.95987677175
1919.95956778405
1919.95945355624
1919.95941866398
1919.95941336056
1919.95941533396
1919.9594181942
1919.95942011867
1919.95942148644
1919.9594228453
1919.95942315201
1919.95942219198
1919.95941936399
1919.95941439731
1919.95940804047
1919.95940187352
1919.95940180187
1919.95943906732
1919.95956148068
1919.95987251614
1919.96063388247
1919.96241351893
1919.96640815349
1919.97506212936
1919.99320684928
1920.03015506125
1920.10357126853
1920.24688726166
1920.52422643877
1921.06102125928
1922.10324781876
1924.1133890215
1927.8758516942
1934.48247002471
1945.25371851069
1900.90479397025
1895.13086319447
1891.68551381892
1889.74127204091
1888.71010250199
1888.18042854613
1887.91111366307
1887.77394689813
1887.70394470081
1887.66839000384
1887.65057020122
1887.64182334449
1887.63764352157
1887.63570796589
1887.63484399218
1887.63447545759
1887.63432790377
1887.63427460789
1887.63426019827
1887.63425944255
1887.63426130663
1887.63426356956
1887.63426526767
1887.63426658609
1887.63426759733
1887.6342679909
1887.63426761505
1887.63426605728
1887.63426325404
1887.63425947017
1887.6342554937
1887.63425412938
1887.63426999145
1887.6343267932
1887.63447478925
1887.63483892206
1887.63569067769
1887.63760179204
1887.64174108935
1887.65042501366
1887.66814614224
1887.70352010784
1887.77313045138
1887.9095124922
1888.17799187643
1888.71018331526
1889.7608150437
1891.77855870778
1895.42510136423
1901.60554302938
1878.50636023157
1875.41448948373
1873.62678814686
1872.641804596
1872.13070665109
1871.87351875427
1871.74523670981
1871.68096563103
1871.64856753301
1871.63224199801
1871.62409304383
1871.62009799162
1871.61818769147
1871.61730176921
1871.61690582987
1871.61673704989
1871.61666989661
1871.61664635406
1871.61664080024
1871.61664119439
1871.61664259641
1871.61664408809
1871.61664525168
1871.6166461726
1871.61664681643
1871.61664712222
1871.61664697614
1871.61664615296
1871.61664466099
1871.61664257278
1871.61664027261
1871.61663909097
1871.6166454445
1871.61667058663
1871.61673795491
1871.6169045186
1871.61729412777
1871.61816716609
1871.62005576254
1871.62401610711
1871.63210710211
1871.64831752946
1871.68045068794
1871.74415440032
1871.87164346033
1872.12951412948
1872.65023908969
1873.67538629107
1875.57918609651
1878.92023516917
1867.45319859264
1865.88494191753
1865.00314974701
1864.52797752787
1864.28646617907
1864.16730537845
1864.10896653464
1864.08020713539
1864.06588603255
1864.05872519013
1864.05516426577
1864.05341991664
1864.05258494156
1864.05219699039
1864.05202334407
1864.05194936536
1864.05192012241
1864.05191023615
1864.05190826121
1864.05190874314
1864.05190962812
1864.05191050254
1864.05191119576
1864.05191174604
1864.05191211388
1864.05191230298
1864.05191224453
1864.05191183045
1864.05191107726
1864.05190999683
1864.05190877138
1864.05190801377
1864.05191042349
1864.05192110932
1864.05195056633
1864.0520237409
1864.05219479376
1864.05257728618
1864.05340293466
1864.05513183951
1864.05866460997
1864.06576248842
1864.07992526337
1864.10832115738
1864.16606669437
1864.28518790918
1864.53106997052
1865.02682160284
1865.97148336457
1867.68223532326
1862.23869812316
1861.48179378731
1861.06659826694
1860.84742649469
1860.73818468786
1860.68528975562
1860.65985682196
1860.64751728628
1860.64144682939
1860.63843454111
1860.63694187542
1860.63621102235
1860.63586068386
1860.63569755355
1860.63562441116
1860.63559326757
1860.63558104232
1860.63557708253
1860.63557644424
1860.63557676976
1860.63557726555
1860.63557773481
1860.63557810953
1860.63557840616
1860.63557859923
1860.63557870135
1860.63557867707
1860.63557847824
1860.63557811586
1860.63557758775
1860.63557697785
1860.63557656426
1860.63557743345
1860.63558180923
1860.63559422855
1860.63562521504
1860.63569756365
1860.6358588931
1860.63620610178
1860.63693146425
1860.63841253263
1860.64139405843
1860.64737836431
1860.65950618581
1860.6845554862
1860.73722673637
1860.84828476491
1861.07739671791
1861.52473090389
1862.35824520984
1859.87978600785
1859.53080255227
1859.3435104919
1859.24651231147
1859.19904612422
1859.17647154162
1859.16580512854
1859.16071045478
1859.15823422243
1859.15701471959
1859.15641244367
1859.15611760661
1859.15597603033
1859.15590994683
1859.155880261
1859.15586762771
1859.15586270419
1859.15586117643
1859.15586099459
1859.15586118273
1859.15586143715
1859.15586167133
1859.15586185891
1859.15586200662
1859.15586210096
1859.1558621511
1859.15586214076
1859.15586204942
1859.15586188269
1859.15586163756
1859.15586135127
1859.15586114536
1859.15586144604
1859.15586318305
1859.15586824773
1859.15588093586
1859.15591051201
1859.15597624179
1859.15611717773
1859.1564106809
1859.15700899343
1859.15821480137
1859.16064756463
1859.1656282221
1859.17607139353
1859.19844184708
1859.24659159448
1859.34813593543
1859.55101586709
1859.93896074909
1858.8537203673
1858.69947779269
1858.6182820312
1858.57696517318
1858.5570924548
1858.54780092332
1858.54348399504
1858.5414535096
1858.54047838898
1858.54000175416
1858.53976711072
1858.53965223757
1858.53959696698
1858.53957109947
1858.5395594552
1858.53955450185
1858.53955258715
1858.53955202067
1858.53955197665
1858.53955206948
1858.53955219061
1858.53955230014
1858.53955238799
1858.53955245673
1858.53955249995
1858.53955252278
1858.53955251837
1858.53955247817
1858.53955240471
1858.53955229635
1858.53955216907
1858.53955207542
1858.53955217604
1858.53955284588
1858.53955485048
1858.53955988874
1858.53957160843
1858.53959755339
1858.53965294117
1858.5397678369
1858.54000148142
1858.54047249623
1858.54142701904
1858.54340003596
1858.54759737923
1858.55675169069
1858.57685124885
1858.6201441813
1858.70854466605
1858.8816258306
1858.42350616282
1858.35795843762
1858.32403528345
1858.30705085019
1858.29901230117
1858.29531408761
1858.29362341847
1858.29284005085
1858.29246829916
1858.29228794062
1858.29219942396
1858.29215607747
1858.29213517446
1858.29212536286
1858.29212093571
1858.29211905239
1858.2921183303
1858.29211812462
1858.2921181162
1858.29211815947
1858.29211821324
1858.2921182613
1858.29211829986
1858.29211832983
1858.29211834841
1858.29211835811
1858.29211835626
1858.29211833933
1858.29211830839
1858.29211826282
1858.29211820919
1858.29211816911
1858.29211820262
1858.29211845595
1858.29211922845
1858.29212117391
1858.29212568722
1858.29213563515
1858.29215676733
1858.29220040277
1858.2922888516
1858.29246706863
1858.29282956616
1858.29358557517
1858.2952164173
1858.29883552417
1858.30693571893
1858.32473903734
1858.36184767523
1858.43609258399
1858.24923509067
1858.22237944643
1858.20868734294
1858.20193319679
1858.19878417797
1858.19735735796
1858.19671507775
1858.19642178776
1858.1962842308
1858.19621798561
1858.19618556893
1858.19616968641
1858.19616200767
1858.19615839135
1858.1961567547
1858.19615605754
1858.19615579144
1858.19615571723
1858.19615571602
1858.1961557342
1858.19615575617
1858.1961557757
1858.19615579138
1858.1961558035
1858.19615581089
1858.1961558147
1858.19615581393
1858.19615580716
1858.19615579483
1858.19615577676
1858.19615575556
1858.19615573973
1858.19615575168
1858.19615584655
1858.19615613778
1858.19615687063
1858.19615856432
1858.19616227861
1858.19617012522
1858.19618624303
1858.19621878493
1858.19628426863
1858.19641785322
1858.19669875409
1858.19731279765
1858.19869840645
1858.20185742494
1858.20893592631
1858.22397983938
1858.2546832908
1858.18089190597
1858.17025821683
1858.16490766311
1858.16230390649
1858.1611067315
1858.16057200487
1858.16033480979
1858.16022801213
1858.16017849573
1858.16015482185
1858.16014326869
1858.16013760333
1858.16013485571
1858.1601335562
1858.1601329653
1858.16013271236
1858.1601326152
1858.16013258752
1858.16013258655
1858.1601325929
1858.16013260072
1858.16013260769
1858.1601326133
1858.16013261762
1858.16013262019
1858.1601326215
1858.16013262117
1858.16013261867
1858.16013261417
1858.16013260765
1858.16013260011
1858.16013259473
1858.1601326
1858.160132636
1858.16013274437
1858.16013301508
1858.16013363658
1858.16013499075
1858.16013783318
1858.16014363712
1858.16015530032
1858.16017872044
1858.16022659732
1858.16032802794
1858.1605525564
1858.161067385
1858.16226211323
1858.16498892397
1858.17089171175
1858.18316195815
1858.15489534265
1858.15081739438
1858.14878914083
1858.14781426632
1858.14737175638
1858.14717673443
1858.14709141883
1858.14705351973
1858.14703614252
1858.14702789202
1858.14702387483
1858.14702190165
1858.1470209404
1858.14702048269
1858.14702027255
1858.1470201812
1858.14702014504
1858.14702013339
1858.14702013145
1858.14702013264
1858.14702013447
1858.14702013617
1858.14702013755
1858.14702013861
1858.14702013921
1858.1470201395
1858.14702013934
1858.14702013858
1858.14702013726
1858.14702013541
1858.14702013339
1858.1470201324
1858.14702013562
1858.14702015012
1858.14702019082
1858.14702029001
1858.14702051448
1858.1470209986
1858.14702200625
1858.14702404895
1858.14702813046
1858.14703630122
1858.14705302424
1858.1470886888
1858.14716857281
1858.14735455905
1858.14779354723
1858.14881320739
1858.1510592022
1858.15580818114
1858.14528718206
1858.14376959165
1858.14302247922
1858.14266740422
1858.14250812328
1858.1424387925
1858.14240885402
1858.14239572269
1858.14238976461
1858.14238695329
1858.14238558593
1858.14238491179
1858.14238458063
1858.14238442076
1858.14238434561
1858.14238431148
1858.14238429665
1858.14238429053
1858.14238428806
1858.14238428696
1858.14238428634
1858.14238428592
1858.1423842856
1858.14238428537
1858.14238428518
1858.14238428506
1858.14238428497
1858.1423842849
1858.14238428483
1858.1423842848
1858.14238428494
1858.14238428573
1858.14238428829
1858.14238429508
1858.14238431137
1858.14238434847
1858.14238442954
1858.14238460082
1858.1423849524
1858.1423856578
1858.14238705648
1858.14238984381
1858.14239554832
1858.14240778207
1858.14243548406
1858.14250091922
1858.14265788608
1858.14302861537
1858.14385878699
1858.14564227686
1858.14183129578
1858.14128228101
1858.14101446768
1858.14088848928
1858.14083258481
1858.14080852714
1858.14079826153
1858.14079381065
1858.14079180944
1858.14079086909
1858.14079041063
1858.14079018235
1858.14079006804
1858.14079001096
1858.14078998251
1858.14078996814
1858.14078996061
1858.14078995632
1858.14078995357
1858.14078995158
1858.14078995002
1858.14078994877
1858.14078994779
1858.14078994706
1858.14078994656
1858.14078994629
1858.14078994625
1858.14078994643
1858.14078994684
1858.14078994749
1858.14078994846
1858.14078994991
1858.14078995226
1858.14078995636
1858.14078996405
1858.14078997919
1858.14079000968
1858.14079007108
1858.14079019351
1858.14079043456
1858.14079090647
1858.14079183959
1858.14079374484
1858.14079784675
1858.14080722498
1858.14082967781
1858.14088436936
1858.14101560637
1858.14131413656
1858.14196520048
1858.14061983428
1858.14042645602
1858.14033292638
1858.14028935048
1858.14027020249
1858.1402620459
1858.14025860108
1858.14025712128
1858.14025645961
1858.14025614812
1858.1402559943
1858.14025591558
1858.1402558742
1858.14025585181
1858.14025583914
1858.14025583146
1858.14025582637
1858.14025582268
1858.14025581981
1858.14025581748
1858.14025581556
1858.14025581401
1858.14025581277
1858.14025581186
1858.14025581125
1858.14025581093
1858.14025581091
1858.14025581118
1858.14025581177
1858.14025581268
1858.14025581394
1858.14025581564
1858.14025581793
1858.14025582111
1858.14025582582
1858.14025583338
1858.14025584641
1858.14025587007
1858.14025591422
1858.14025599758
1858.14025615647
1858.14025646549
1858.14025709148
1858.14025843958
1858.1402615443
1858.14026906659
1858.14028765216
1858.14033292645
1858.14043748988
1858.14066887549
1858.14020537953
1858.14013897504
1858.14010714119
1858.14009245104
1858.14008605326
1858.14008335042
1858.1400822169
1858.14008173168
1858.14008151371
1858.14008140907
1858.14008135519
1858.14008132558
1858.14008130822
1858.14008129729
1858.14008128986
1858.14008128439
1858.14008128012
1858.14008127662
1858.1400812737
1858.14008127125
1858.14008126921
1858.14008126754
1858.14008126623
1858.14008126525
1858.14008126459
1858.14008126426
1858.14008126425
1858.14008126456
1858.14008126521
1858.14008126621
1858.14008126758
1858.14008126937
1858.14008127163
1858.14008127451
1858.14008127821
1858.14008128319
1858.14008129032
1858.14008130129
1858.14008131925
1858.14008135018
1858.14008140556
1858.14008150904
1858.14008171381
1858.14008215063
1858.14008315815
1858.14008562021
1858.14009177885
1858.14010699699
1858.14014268698
1858.14022285218
1858.14006683072
1858.14004458064
1858.14003404003
1858.14002923188
1858.14002715467
1858.14002628072
1858.1400259136
1858.1400257544
1858.1400256804
1858.14002564243
1858.14002562068
1858.14002560687
1858.14002559727
1858.14002559007
1858.14002558435
1858.14002557962
1858.14002557561
1858.14002557219
1858.14002556927
1858.14002556678
1858.1400255647
1858.140025563
1858.14002556166
1858.14002556066
1858.14002555999
1858.14002555966
1858.14002555965
1858.14002555998
1858.14002556065
1858.14002556168
1858.14002556309
1858.1400255649
1858.14002556716
1858.14002556992
1858.14002557328
1858.14002557739
1858.14002558257
1858.14002558934
1858.14002559872
1858.14002561256
1858.14002563441
1858.14002567157
1858.14002574057
1858.1400258824
1858.14002620454
1858.14002699114
1858.1400289743
1858.14003394133
1858.14004579494
1858.14007289519
1858.14002152179
1858.14001424916
1858.14001088307
1858.14000937824
1858.14000873283
1858.14000845914
1858.14000834091
1858.14000828642
1858.1400082582
1858.14000824129
1858.14000822968
1858.14000822086
1858.14000821373
1858.14000820772
1858.14000820257
1858.14000819809
1858.14000819419
1858.14000819081
1858.14000818789
1858.14000818541
1858.14000818332
1858.14000818162
1858.14000818028
1858.14000817928
1858.14000817862
1858.14000817828
1858.14000817828
1858.14000817862
1858.1400081793
1858.14000818033
1858.14000818175
1858.14000818356
1858.14000818581
1858.14000818852
1858.14000819176
1858.14000819558
1858.14000820011
1858.14000820551
1858.14000821212
1858.1400082205
1858.1400082317
1858.14000824791
1858.14000827406
1858.14000832242
1858.14000842541
1858.14000866951
1858.14000928148
1858.14001083373
1858.14001463578
1858.14002357424
1858.14000701182
1858.14000470168
1858.14000369836
1858.14000327353
1858.14000309249
1858.1400030117
1858.14000297261
1858.14000295104
1858.14000293705
1858.14000292664
1858.14000291815
1858.14000291088
1858.14000290453
1858.14000289892
1858.14000289396
1858.14000288958
1858.14000288574
1858.14000288239
1858.1400028795
1858.14000287704
1858.14000287497
1858.14000287328
1858.14000287195
1858.14000287096
1858.1400028703
1858.14000286997
1858.14000286998
1858.14000287031
1858.14000287099
1858.14000287203
1858.14000287343
1858.14000287524
1858.14000287747
1858.14000288016
1858.14000288334
1858.14000288705
1858.14000289135
1858.14000289631
1858.14000290204
1858.1400029087
1858.14000291661
1858.14000292636
1858.14000293929
1858.14000295871
1858.14000299317
1858.14000306545
1858.140003237
1858.14000367714
1858.14000482155
1858.14000768906
1858.14000245765
1858.14000175561
1858.14000151355
1858.14000143422
1858.14000140052
1858.1400013803
1858.14000136575
1858.14000135422
1858.14000134451
1858.14000133603
1858.14000132846
1858.14000132167
1858.14000131556
1858.1400013101
1858.14000130522
1858.14000130091
1858.14000129712
1858.14000129381
1858.14000129095
1858.14000128851
1858.14000128647
1858.1400012848
1858.14000128348
1858.14000128251
1858.14000128186
1858.14000128154
1858.14000128155
1858.14000128188
1858.14000128256
1858.14000128359
1858.14000128498
1858.14000128678
1858.14000128899
1858.14000129164
1858.14000129478
1858.14000129844
1858.14000130265
1858.14000130746
1858.14000131291
1858.14000131905
1858.14000132598
1858.14000133382
1858.14000134284
1858.14000135358
1858.14000136719
1858.14000138635
1858.14000141961
1858.14000150548
1858.14000179185
1858.14000267485
1858.1400010564
1858.14000086464
1858.1400008626
1858.14000089125
1858.14000090305
1858.14000090124
1858.14000089396
1858.1400008853
1858.14000087675
1858.14000086877
1858.14000086144
1858.14000085479
1858.14000084877
1858.14000084337
1858.14000083856
1858.1400008343
1858.14000083056
1858.14000082729
1858.14000082448
1858.14000082208
1858.14000082007
1858.14000081843
1858.14000081713
1858.14000081618
1858.14000081555
1858.14000081523
1858.14000081524
1858.14000081558
1858.14000081625
1858.14000081726
1858.14000081864
1858.14000082041
1858.14000082259
1858.14000082522
1858.14000082832
1858.14000083194
1858.1400008361
1858.14000084085
1858.1400008462
1858.1400008522
1858.14000085887
1858.14000086622
1858.1400008742
1858.14000088253
1858.14000089013
1858.14000089346
1858.14000088449
1858.14000086014
1858.14000087542
1858.14000112329
1858.14000063458
1858.14000060159
1858.14000067342
1858.14000073472
1858.1400007599
1858.14000076324
1858.14000075782
1858.14000074978
1858.14000074143
1858.14000073351
1858.14000072621
1858.14000071958
1858.14000071361
1858.14000070826
1858.14000070351
1858.14000069931
1858.14000069562
1858.14000069241
1858.14000068965
1858.14000068729
1858.14000068532
1858.14000068371
1858.14000068245
1858.14000068151
1858.1400006809
1858.1400006806
1858.14000068061
1858.14000068094
1858.1400006816
1858.1400006826
1858.14000068396
1858.1400006857
1858.14000068785
1858.14000069044
1858.1400006935
1858.14000069708
1858.14000070119
1858.1400007059
1858.14000071122
1858.14000071719
1858.14000072383
1858.14000073113
1858.14000073896
1858.14000074683
1858.14000075298
1858.14000075202
1858.14000073083
1858.14000067329
1858.14000060492
1858.1400006535
1858.14000051171
1858.14000052723
1858.14000062098
1858.1400006914
1858.14000071991
1858.14000072425
1858.14000071898
1858.14000071086
1858.14000070238
1858.14000069437
1858.14000068704
1858.14000068041
1858.14000067447
1858.14000066917
1858.14000066448
1858.14000066035
1858.14000065672
1858.14000065358
1858.14000065087
1858.14000064857
1858.14000064665
1858.14000064508
1858.14000064385
1858.14000064294
1858.14000064234
1858.14000064205
1858.14000064207
1858.1400006424
1858.14000064304
1858.14000064403
1858.14000064536
1858.14000064707
1858.14000064918
1858.14000065172
1858.14000065474
1858.14000065826
1858.14000066233
1858.140000667
1858.1400006723
1858.14000067828
1858.14000068497
1858.14000069236
1858.14000070033
1858.14000070834
1858.14000071448
1858.1400007128
1858.14000068866
1858.14000062188
1858.14000052856
1858.14000051574
1858.14000047884
1858.14000050898
1858.1400006086
1858.1400006808
1858.14000070946
1858.14000071344
1858.14000070775
1858.14000069929
1858.14000069057
1858.14000068242
1858.14000067503
1858.1400006684
1858.14000066249
1858.14000065726
1858.14000065264
1858.14000064858
1858.14000064504
1858.14000064196
1858.14000063933
1858.14000063709
1858.14000063522
1858.14000063369
1858.1400006325
1858.14000063162
1858.14000063104
1858.14000063076
1858.14000063078
1858.14000063111
1858.14000063174
1858.1400006327
1858.140000634
1858.14000063567
1858.14000063774
1858.14000064023
1858.14000064319
1858.14000064666
1858.14000065068
1858.1400006553
1858.14000066058
1858.14000066658
1858.14000067333
1858.14000068087
1858.14000068909
1858.14000069746
1858.14000070405
1858.14000070282
1858.14000067865
1858.14000061004
1858.1400005099
1858.14000047845
1858.14000047309
1858.14000050757
1858.14000060807
1858.14000067964
1858.14000070734
1858.14000071046
1858.14000070412
1858.1400006952
1858.1400006862
1858.14000067789
1858.14000067044
1858.14000066381
1858.14000065795
1858.14000065278
1858.14000064824
1858.14000064427
1858.14000064082
1858.14000063783
1858.14000063527
1858.1400006331
1858.14000063129
1858.14000062982
1858.14000062867
1858.14000062782
1858.14000062726
1858.140000627
1858.14000062702
1858.14000062734
1858.14000062796
1858.14000062889
1858.14000063016
1858.14000063179
1858.1400006338
1858.14000063623
1858.14000063912
1858.14000064252
1858.14000064648
1858.14000065106
1858.14000065631
1858.14000066231
1858.14000066914
1858.14000067685
1858.14000068536
1858.14000069418
1858.14000070145
1858.1400007011
1858.14000067792
1858.1400006099
1858.14000050857
1858.14000047153
1858.14000047594
1858.14000051167
1858.14000061134
1858.14000068133
1858.14000070755
1858.14000070954
1858.14000070241
1858.14000069298
1858.14000068367
1858.1400006752
1858.14000066769
1858.14000066107
1858.14000065527
1858.14000065019
1858.14000064575
1858.14000064188
1858.14000063853
1858.14000063564
1858.14000063316
1858.14000063107
1858.14000062933
1858.14000062791
1858.1400006268
1858.14000062599
1858.14000062546
1858.14000062521
1858.14000062524
1858.14000062555
1858.14000062615
1858.14000062705
1858.14000062828
1858.14000062986
1858.14000063181
1858.14000063418
1858.140000637
1858.14000064032
1858.1400006442
1858.14000064871
1858.14000065392
1858.14000065993
1858.14000066683
1858.1400006747
1858.14000068352
1858.14000069286
1858.14000070092
1858.1400007017
1858.14000067999
1858.14000061351
1858.14000051287
1858.14000047418
1858.14000048215
1858.14000051816
1858.1400006162
1858.14000068403
1858.1400007084
1858.14000070906
1858.14000070104
1858.14000069105
1858.14000068142
1858.1400006728
1858.14000066525
1858.14000065867
1858.14000065294
1858.14000064796
1858.14000064364
1858.14000063989
1858.14000063665
1858.14000063386
1858.14000063148
1858.14000062948
1858.14000062781
1858.14000062646
1858.1400006254
1858.14000062462
1858.14000062412
1858.14000062388
1858.14000062391
1858.14000062421
1858.1400006248
1858.14000062567
1858.14000062686
1858.14000062838
1858.14000063026
1858.14000063255
1858.14000063528
1858.14000063851
1858.14000064231