/*--------------------------------*- C++ -*----------------------------------*\
  =========                 |
  \\      /  F ield         | OpenFOAM: The Open Source CFD Toolbox
   \\    /   O peration     | Website:  https://openfoam.org
    \\  /    A nd           | Version:  10
     \\/     M anipulation  |
\*---------------------------------------------------------------------------*/
FoamFile
{
    format      ascii;
    class       volScalarField;
    location    "7.8";
    object      k;
}
// * * * * * * * * * * * * * * * * * * * * * * * * * * * * * * * * * * * * * //

dimensions      [0 2 -2 0 0 0 0];

internalField   nonuniform List<scalar> 
2500
(
7.27300452990648e-10
1.4309548974868e-08
6.12726613999984e-08
1.06645567918102e-07
1.46312195244864e-07
1.78839637691913e-07
2.03928999948771e-07
2.22154983128036e-07
2.34641827559802e-07
2.42722672629568e-07
2.47670922306412e-07
2.50543227296694e-07
2.52126703869056e-07
2.52957353820542e-07
2.5337274585213e-07
2.53571127492336e-07
2.5366175220483e-07
2.53701400348749e-07
2.53718021217956e-07
2.53724690309071e-07
2.53727239446347e-07
2.53728154953868e-07
2.53728452334246e-07
2.53728529185734e-07
2.53728531685876e-07
2.53728504119674e-07
2.53728441406886e-07
2.53728277557975e-07
2.53727823862961e-07
2.53726594934595e-07
2.53723393673995e-07
2.53715380197654e-07
2.53696082956902e-07
2.53651366643974e-07
2.53551715415395e-07
2.53338388622348e-07
2.52900339521044e-07
2.52039000223174e-07
2.50420149527347e-07
2.47517530712883e-07
2.42562203606981e-07
2.34523294513401e-07
2.22154658863035e-07
2.0413938058109e-07
1.79341455801861e-07
1.47130325096839e-07
1.07694624733026e-07
6.22903062874877e-08
1.47210263191669e-08
7.60441661463315e-10
1.79580889036148e-08
4.1182849620622e-07
1.79990776464487e-06
3.13461099219977e-06
4.30284718773718e-06
5.26287578983304e-06
6.0054157911023e-06
6.54661124186486e-06
6.9187972170342e-06
7.16067324395321e-06
7.30946346376544e-06
7.39625400842651e-06
7.44434690196984e-06
7.46970994093181e-06
7.48246326044039e-06
7.48858819042541e-06
7.49140213606332e-06
7.49264038727278e-06
7.49316257342065e-06
7.49337342142241e-06
7.49345458892576e-06
7.49348401114756e-06
7.49349371708924e-06
7.49349632525895e-06
7.49349650454292e-06
7.49349567308502e-06
7.49349366734223e-06
7.49348839620137e-06
7.49347387216996e-06
7.49343477745376e-06
7.49333353804004e-06
7.4930815112979e-06
7.49247783280314e-06
7.49108627592863e-06
7.48800121942521e-06
7.48143077637617e-06
7.46800760157331e-06
7.44174593168777e-06
7.39263053249268e-06
7.30498530279968e-06
7.15604140705263e-06
6.91545722512108e-06
6.5467822028131e-06
6.01175758166772e-06
5.27767465596056e-06
4.32675072233816e-06
3.16508021847264e-06
1.82933025763845e-06
4.23436027015242e-07
1.87459203348198e-08
6.35126076200379e-08
1.84431236411633e-06
9.12562629759973e-06
1.58656038980221e-05
2.17296676024808e-05
2.65334163407061e-05
3.02426985395402e-05
3.29452691579716e-05
3.48054023323697e-05
3.60164456305011e-05
3.676333718521e-05
3.72003824762078e-05
3.74434326446534e-05
3.75721148264316e-05
3.76370901466705e-05
3.7668431440037e-05
3.76828956056937e-05
3.76892902756603e-05
3.76920002138699e-05
3.76931002162713e-05
3.76935262594554e-05
3.76936819491309e-05
3.76937340052944e-05
3.76937484491838e-05
3.76937498620116e-05
3.76937457690314e-05
3.76937352736987e-05
3.76937075991901e-05
3.76936316308632e-05
3.76934280748794e-05
3.76929031002853e-05
3.76916010667232e-05
3.76884932642979e-05
3.76813539042389e-05
3.76655796372554e-05
3.76320970202353e-05
3.75639201916663e-05
3.74309692963589e-05
3.71830974835442e-05
3.6742070278435e-05
3.59945512341428e-05
3.47897168974302e-05
3.2946223749993e-05
3.02727566087384e-05
2.66032806570698e-05
2.18423527015027e-05
1.60090695965287e-05
9.26374884239529e-06
1.89172028971087e-06
6.58813151305901e-08
1.12096247413574e-07
3.27783285752497e-06
1.62770745839556e-05
2.82030429594047e-05
3.85183814413649e-05
4.69306765746022e-05
5.34048759276749e-05
5.81113745171567e-05
6.13464783746247e-05
6.34514798561493e-05
6.47497126545988e-05
6.55097167299625e-05
6.5932700664945e-05
6.61568793045944e-05
6.62702128400191e-05
6.63249564603199e-05
6.63502600749922e-05
6.63614659771532e-05
6.63662237880536e-05
6.63681592144445e-05
6.63689108040507e-05
6.63691864661636e-05
6.63692792070944e-05
6.63693052753878e-05
6.6369308164974e-05
6.63693014142687e-05
6.63692833501398e-05
6.63692355867789e-05
6.63691043788519e-05
6.63687526043297e-05
6.63678447376247e-05
6.63655913742387e-05
6.63602089106911e-05
6.63478357208765e-05
6.6320480949622e-05
6.62623873844834e-05
6.61440465329323e-05
6.59131862220516e-05
6.54826305009718e-05
6.47162956706095e-05
6.34168203880298e-05
6.1320987918151e-05
5.81109588371586e-05
5.34485508834845e-05
4.70347541469858e-05
3.86872968500307e-05
2.8417839427918e-05
1.64817900386505e-05
3.34652351073847e-06
1.1546566679457e-07
1.59750766980509e-07
4.67381427691502e-06
2.31600667055382e-05
4.00027107359867e-05
5.44985030497069e-05
6.62747458168399e-05
7.53124795013526e-05
8.18701412651045e-05
8.63726276018483e-05
8.93008312201873e-05
9.11067508749834e-05
9.21643506786413e-05
9.27533481060199e-05
9.30657871692352e-05
9.32239086923011e-05
9.33003797902718e-05
9.3335774948784e-05
9.33514740781531e-05
9.33581512004344e-05
9.33608728995942e-05
9.33619325349493e-05
9.33623226150739e-05
9.3362454691299e-05
9.33624923298732e-05
9.33624970291974e-05
9.33624880387105e-05
9.3362463277458e-05
9.33623973655486e-05
9.33622161915282e-05
9.33617302196453e-05
9.33604751408608e-05
9.33573574617769e-05
9.33499042761502e-05
9.33327572630059e-05
9.32948206943937e-05
9.32142017287288e-05
9.30498806739506e-05
9.27291606463882e-05
9.21307446741412e-05
9.10651654665682e-05
8.92573559939157e-05
8.6339777374174e-05
8.18670483464344e-05
7.5362000276681e-05
6.63964206771548e-05
5.46974311720041e-05
4.0255638376388e-05
2.33998011514791e-05
4.75424851995035e-06
1.63734687076949e-07
2.05296596294878e-07
6.00718898650957e-06
2.9685668487337e-05
5.11259446556974e-05
6.94982869260768e-05
8.43740706819087e-05
9.57631352146278e-05
0.000104013715508442
0.000109673343018428
0.00011335270143097
0.000115621984328207
0.000116951437146714
0.000117692297736342
0.000118085619440446
0.000118284873354012
0.000118381347890911
0.00011842605982492
0.000118445920324139
0.000118454381470731
0.000118457837234164
0.000118459186133213
0.000118459684602828
0.000118459854535872
0.000118459903700708
0.000118459910482019
0.000118459899711111
0.00011845986902776
0.000118459786734004
0.000118459560477025
0.000118458953503039
0.000118457385210574
0.000118453486954574
0.000118444160968903
0.00011842268991908
0.000118375154738966
0.000118274076381153
0.000118067943725557
0.000117665427667363
0.000116914077549307
0.000115575634379337
0.000113303897445735
0.000109635562834349
0.000104007557515175
9.5813160654318e-05
8.45011838089923e-05
6.97077522772348e-05
5.1392594676724e-05
2.99382291093246e-05
6.09300804526945e-06
2.09635475466323e-07
2.48060980744041e-07
7.25972700582294e-06
3.57816225093389e-05
6.14638196946027e-05
8.33864787790079e-05
0.000101085539271185
0.000114608324851639
0.000124391553314849
0.000131097525022142
0.000135455924971422
0.000138144270269195
0.000139719831378704
0.000140598373343175
0.000141065158444192
0.000141301852250903
0.000141416579348982
0.000141469816219904
0.000141493496426003
0.000141503601133682
0.000141507736220112
0.000141509354450569
0.000141509954802903
0.000141510160949647
0.000141510221557276
0.000141510230696752
0.000141510218561829
0.000141510182641372
0.000141510085602611
0.000141509818856435
0.000141509103441448
0.000141507254583084
0.00014150265670848
0.000141491650358113
0.00014146629475815
0.000141410125894552
0.000141290623879579
0.000141046801969178
0.000140570490432169
0.000139681061745287
0.000138096093869926
0.000135404926229678
0.000131057292835503
0.000124382815753536
0.000114655712623088
0.000101209888814092
8.35928559521664e-05
6.17270173284132e-05
3.60316005989792e-05
7.34654097684667e-06
2.52569200643597e-07
2.87571269944531e-07
8.41795180275261e-06
4.13933549472113e-05
7.09376135446558e-05
9.60720019485091e-05
0.000116313403413221
0.000131751724987216
0.000142908394436144
0.000150551262735991
0.000155517667468896
0.000158581464436403
0.000160377765855947
0.000161379983912087
0.000161912881712935
0.000162183341898255
0.000162314571034682
0.000162375536577313
0.000162402690614863
0.000162414295577144
0.000162419053609362
0.000162420920386115
0.000162421615698371
0.000162421856212757
0.000162421928115768
0.000162421939912734
0.000162421926754638
0.000162421886197779
0.000162421775936274
0.000162421473028259
0.000162420661103867
0.000162418562883629
0.000162413343155288
0.000162400842079744
0.000162372027516179
0.000162308162585356
0.000162172221113533
0.000161894738985254
0.000161352470760237
0.000160339552068359
0.000158533984333518
0.000155467294207932
0.000150511101258673
0.000142898343800019
0.000131795293829814
0.000116430300491137
9.6266792610189e-05
7.11863230780816e-05
4.16307245114293e-05
8.50280269282075e-06
2.92115648264437e-07
3.23509095693655e-07
9.47260891350995e-06
4.64846239946566e-05
7.94989498698031e-05
0.000107503300018378
0.000130007886230799
0.000147147265408093
0.00015952196142901
0.000167995318596131
0.000173500790458441
0.000176897722438181
0.000178890119876474
0.000180002378146918
0.000180594209860019
0.000180894835100114
0.000181040842360121
0.000181108748271731
0.00018113903162542
0.000181151993064697
0.000181157316968929
0.000181159410984329
0.000181160194002534
0.000181160466831784
0.000181160549786587
0.000181160564482464
0.000181160550628288
0.000181160505966403
0.000181160383902094
0.000181160048902163
0.000181159151742805
0.000181156833760754
0.000181151066207185
0.00018113724770865
0.000181105381896132
0.000181034721651248
0.000180884251708406
0.000180576998396632
0.000179976354824902
0.000178854080702655
0.000176853074332292
0.000173453556012599
0.000167957746624705
0.00015951249142068
0.000147187476863739
0.00013011561520134
0.000107682335207658
7.97272443341887e-05
4.67037202100839e-05
9.55366741759152e-06
3.27998518921291e-07
3.55697427615211e-07
1.04184569020098e-05
5.10372571465817e-05
8.71286470157326e-05
0.000117666206303359
0.000142162251368601
0.000160795633461372
0.00017423910083215
0.00018344105021096
0.000189419646504882
0.000193109224204233
0.000195274105961808
0.000196483311185981
0.000197127163556667
0.000197454473354238
0.000197613585664403
0.000197687663165862
0.000197720737948445
0.000197734913897271
0.000197740746830868
0.00019774304659908
0.000197743909845493
0.000197744212757668
0.000197744306376638
0.000197744324147106
0.000197744309904822
0.000197744261630106
0.000197744129092052
0.000197743765817845
0.00019774279400835
0.000197740284100021
0.000197734038491901
0.000197719070081614
0.00019768453915666
0.000197607938636815
0.000197444758007963
0.000197111439693232
0.000196459657241163
0.000195241538257334
0.000193069175023658
0.000189377746734701
0.000183408505474206
0.000174232534719347
0.000160834210749752
0.00014226145111061
0.000117828777681833
8.73346783534697e-05
5.12358849759912e-05
1.04948015544555e-05
3.60075711194771e-07
3.84090187466754e-07
1.12540097967912e-05
5.50499639214609e-05
9.38342633489383e-05
0.00012658034306126
0.00015280833254786
0.00017273920948398
0.000187110339708055
0.00019694473639683
0.000203334269857757
0.000207278287589627
0.000209593341044735
0.000210887093307616
0.000211576400823357
0.000211927078620487
0.000212097695449779
0.000212177205756251
0.000212212745544015
0.000212227997975733
0.000212234284217568
0.000212236768422184
0.000212237704319523
0.000212238034942395
0.000212238138707013
0.000212238159650189
0.000212238145281708
0.000212238093863652
0.000212237952098472
0.000212237564116374
0.000212236527518005
0.000212233851606981
0.000212227192991914
0.000212211231107112
0.000212174396367408
0.000212092657117869
0.000211918472824211
0.00021156257519125
0.000210866468730005
0.000209565242531991
0.000207244248959524
0.000203299564082852
0.00019691948474206
0.000187109212595509
0.000172778729930416
0.000152901349357013
0.000126728318447212
9.40192558224819e-05
5.52285727968463e-05
1.1325433521357e-05
3.88329762771004e-07
4.08757812663132e-07
1.19811416663096e-05
5.8536376154551e-05
9.96465808516062e-05
0.000134294332008794
0.000162010815288216
0.000183055720688517
0.000198223136788543
0.000208600579680198
0.000215343230272215
0.000219506136044111
0.000221950565913318
0.000223317283405177
0.000224045897106093
0.000224416826797451
0.000224597438766082
0.000224681682187783
0.000224719376288379
0.000224735573034163
0.00022474225880761
0.00022474490663812
0.000224745907641502
0.000224746263515586
0.000224746376806509
0.000224746400930685
0.000224746386649858
0.000224746332526672
0.000224746182702927
0.000224745773325696
0.000224744681044132
0.000224741863017732
0.000224734851337343
0.000224718040291168
0.000224679235524068
0.000224593099202964
0.0002244094930237
0.000224034250159537
0.000223300149495891
0.000221927657623583
0.00021947917717777
0.000215317221670497
0.00020858462463276
0.000198229980968124
0.000183099217118424
0.000162101075794732
0.000134431309080352
9.98138840475046e-05
5.86972937290648e-05
1.20479698909117e-05
4.12853559429154e-07
4.29868513667081e-07
1.26045612901129e-05
6.15225278111342e-05
0.000104615347264371
0.00014088018977094
0.000169860668518404
0.00019185102102041
0.000207694239601202
0.000218532798316053
0.000225575563898712
0.000229924734740276
0.000232479427593662
0.000233908442078828
0.000234670683074972
0.000235058977888046
0.00023524818174353
0.000235336505142541
0.00023537606216026
0.000235393078547019
0.000235400112743762
0.000235402904203966
0.000235403962928481
0.000235404341559106
0.000235404463675308
0.000235404490907592
0.000235404476880967
0.000235404420459434
0.000235404263668555
0.000235403835950503
0.000235402696309997
0.000235399757927808
0.000235392447742248
0.000235374918964417
0.000235334448495649
0.000235244592154131
0.000235053009840519
0.000234661380898559
0.000233895082920085
0.00023246217766417
0.000229905598347059
0.000225559386295785
0.000218527803274057
0.000207711393025453
0.000191901622134313
0.000169952112714377
0.000141010732723467
0.000104769584801516
6.16692673413082e-05
1.26674817389611e-05
4.33831739681853e-07
4.47666632165666e-07
1.31311997347311e-05
6.40440084770966e-05
0.000108804622615524
0.000146427316101782
0.000176468169350484
0.000199251461765363
0.000215661626140663
0.000226887295380727
0.000234182274559451
0.000238688192016401
0.000241335823598217
0.000242817444423065
0.00024360814083256
0.00024401116385154
0.000244207673420738
0.000244299475820306
0.00024434062641605
0.000244358346573696
0.000244365681351664
0.000244368597526107
0.000244369706862919
0.000244370105765469
0.000244370235942356
0.000244370266148284
0.000244370252503195
0.000244370194158731
0.000244370031413505
0.00024436958814529
0.000244368408672759
0.0002443653695174
0.000244357809855821
0.000244339681466306
0.000244297819021691
0.00024420485225932
0.000244006596862316
0.000243601251340746
0.000242807989396072
0.000241324473624288
0.000238677315913134
0.000234176690918957
0.000226894527935874
0.000215691079472257
0.000199312094338349
0.000176564773819861
0.000146556309188343
0.000108950967141534
6.41806704396535e-05
1.3191109566516e-05
4.51519446622021e-07
4.62449914209344e-07
1.35695630319469e-05
6.61430212288115e-05
0.000112288066690187
0.00015103647472442
0.000181955960914413
0.00020539631970348
0.000222276516367568
0.000233823402731019
0.000241327911337595
0.000245964237095441
0.000248689321958371
0.000250214868080099
0.000251029374981138
0.000251444751034135
0.000251647403974569
0.000251742140215549
0.000251784639000029
0.000251802956804337
0.000251810548044123
0.000251813571314943
0.000251814724533965
0.000251815141281747
0.000251815278721474
0.000251815311721087
0.000251815298548946
0.000251815238625028
0.000251815070857521
0.000251814614563375
0.00025181340198637
0.00025181027946169
0.000251802513809195
0.000251783890543782
0.000251740878962963
0.000251645343037784
0.000251441572510439
0.000251024884456718
0.000250209315539637
0.000248683916447306
0.000245961783001226
0.000241333327144455
0.00023384370705982
0.000222319808435115
0.000205469487130493
0.000182061371275052
0.000151168614300897
0.000112431662173994
6.62738069115754e-05
1.36274396336085e-05
4.66220283187639e-07
4.74547416188779e-07
1.39290991225101e-05
6.78655477453401e-05
0.000115144460306952
0.000154814115582158
0.00018645252912478
0.00021043069457066
0.000227695883520345
0.000239506142304731
0.000247182673144509
0.0002519262298497
0.00025471511583516
0.000256276917057979
0.000257111119966171
0.000257536739070784
0.000257744499480305
0.00025784168193278
0.000257885308487505
0.000257904128129436
0.000257911935737433
0.000257915049942835
0.000257916240776242
0.000257916673047141
0.00025791681694528
0.000257916852525197
0.000257916839886004
0.000257916778693884
0.000257916606753062
0.000257916139691015
0.000257914899951259
0.000257911709330204
0.000257903775750557
0.000257884749233846
0.000257840801018611
0.000257743169865718
0.000257534898831884
0.000257108949732154
0.000256275158953704
0.000254715534665075
0.000251932119621761
0.000247199165677847
0.000239539941872055
0.000227754049171257
0.00021051833776819
0.000186569809487076
0.000154953549522525
0.00011529000098567
6.79943948587979e-05
1.39858991147545e-05
4.78265128612929e-07
4.84299439403284e-07
1.42196192834375e-05
6.9258781826089e-05
0.000117453690404902
0.000157867312011947
0.000190086401516169
0.000214499200110271
0.000232075804633715
0.000244099354619808
0.000251915397034537
0.000256746063718592
0.000259586876399149
0.000261178246469215
0.000262028549640476
0.000262462562607384
0.000262674519749304
0.00026277371817891
0.000262818277235862
0.000262837513423168
0.000262845501481881
0.000262848692013693
0.00026284991471608
0.000262850360329437
0.000262850509896869
0.000262850547823627
0.000262850535752077
0.000262850473570644
0.000262850298220762
0.000262849822387606
0.00026284856067044
0.000262845315189939
0.000262837246576114
0.000262817895914989
0.000262773194544634
0.000262673877546033
0.000262461982887464
0.000262028572509572
0.000261180093384626
0.000259592869547868
0.000256760022073045
0.000251942759358655
0.000244146683802742
0.000232149373298263
0.000214602638592926
0.000190217898007081
0.000158017422832512
0.00011760515325838
6.93891224053066e-05
1.42762075431751e-05
4.87993107930478e-07
4.92040448906393e-07
1.4450801967014e-05
7.03689404882627e-05
0.000119293351801243
0.000160299493301662
0.000192981267808671
0.000217740662465264
0.000235565874326812
0.000247759925819644
0.000255687666515132
0.00026058820115506
0.000263470745256065
0.000265085930566438
0.000265949232037825
0.000266390039159709
0.00026660540272986
0.000266706242504376
0.000266751563360826
0.000266771141181166
0.000266779277955082
0.00026678253179769
0.00026678378118352
0.000266784238128167
0.000266784392610563
0.000266784432643495
0.000266784421155098
0.000266784358231251
0.000266784180151968
0.000266783697293507
0.00026678241807286
0.000266779129071686
0.000266770953507648
0.000266751346162888
0.000266706048071808
0.000266605394335834
0.00026639062407104
0.000265951288163312
0.000265091136518895
0.000263481968702916
0.000260609803104853
0.000255725463422875
0.000247820486243513
0.000235654913078063
0.00021786060677436
0.000193128574392822
0.000160462810858668
0.000119453868547661
7.0503572025676e-05
1.45079096347407e-05
4.95735556560697e-07
4.9808547724198e-07
1.46317942332988e-05
7.1239510029715e-05
0.000120736042160383
0.000162207060569892
0.000195252118312339
0.000220283928440517
0.000238304789421199
0.000250633224580397
0.000258649153807483
0.000263604957305685
0.000266520583216533
0.000268154691525978
0.000269028347175844
0.000269474581127885
0.000269692673592853
0.000269794832464912
0.000269840767731761
0.000269860622214871
0.000269868880024888
0.000269872185737716
0.000269873457195111
0.000269873923648252
0.000269874082341719
0.00026987412424288
0.000269874113338176
0.000269874049887279
0.000269873869675582
0.000269873381301891
0.000269872088398969
0.000269868765491229
0.000269860506704882
0.000269840699587289
0.00026979493667636
0.000269693240534049
0.000269476225351543
0.000269032258871896
0.000268162977743546
0.000266536634626654
0.000263633677923301
0.00025869678574379
0.000250706459827644
0.000238408980878176
0.000220420550053724
0.000195416126407146
0.000162385282090514
0.000120907888078968
7.13805631341679e-05
1.46900022618289e-05
5.0180338109507e-07
5.02720086549382e-07
1.4770913828242e-05
7.19099350801806e-05
0.00012184735402047
0.000163676885412338
0.000197002396758429
0.00022224477889385
0.000240417099318913
0.000252849743983677
0.000260934191508121
0.000265933027725798
0.000268874471499564
0.000270523385275445
0.000271405164322615
0.000271855668488565
0.000272075915076614
0.000272179118808693
0.000272225542609051
0.000272245618036475
0.000272253973022025
0.000272257320673419
0.000272258610157146
0.000272259084493947
0.000272259246755768
0.000272259290297783
0.000272259279966821
0.000272259216174504
0.000272259034348946
0.000272258541754807
0.000272257238408245
0.000272253889684871
0.000272245567569773
0.000272225608303874
0.000272179490848724
0.000272076998255409
0.000271858265025297
0.000271410749496854
0.000270534462226046
0.000268894924294015
0.000265968291668216
0.000260990962002974
0.000252934925287524
0.000240535842898487
0.000222397820904634
0.000197183406238784
0.000163870975809977
0.000122032025611536
7.2058915952677e-05
1.48306569530205e-05
5.06477815792667e-07
5.06193621324474e-07
1.48754451871139e-05
7.24147191108008e-05
0.000122684509318796
0.000164784619195462
0.000198322083197134
0.00022372385486564
0.000242011024737042
0.000254522847967689
0.000262659471576805
0.000267691157152658
0.000270652361938332
0.000272312640725249
0.000273200675000157
0.000273654478405788
0.000273876395323627
0.000273980412420144
0.000274027218154622
0.000274047467165708
0.000274055898952758
0.000274059280010895
0.000274060584015285
0.000274061064808575
0.00027406123006292
0.000274061275034623
0.000274061265260602
0.000274061201284694
0.000274061018291156
0.000274060522580215
0.000274059211524902
0.000274055843774643
0.000274047474958521
0.00027402740325856
0.000273981023083047
0.000273877938626135
0.00027365792523925
0.000273207758883121
0.000272326227741549
0.000270676796433347
0.000267732385438643
0.000262724653677282
0.000254619163270897
0.000242143549218426
0.000223892765780269
0.000198519951010336
0.000164994962832033
0.000122882860660634
7.25726029150934e-05
1.49370303394343e-05
5.10004264676283e-07
5.08715237379368e-07
1.49515154357852e-05
7.2782875023601e-05
0.000123295537558208
0.000165593686304396
0.000199286560536927
0.000224805436565984
0.000243177176086441
0.000255747448070276
0.000263922693992837
0.000268978769738936
0.000271954695525447
0.000273623471187872
0.000274516200238418
0.000274972490152375
0.000275195671549107
0.000275300307342611
0.000275347405133339
0.000275367787676616
0.000275376278973461
0.00027537968616336
0.000275381001679311
0.000275381487691721
0.000275381655431797
0.000275381701642301
0.00027538169240464
0.000275381628377736
0.000275381444597281
0.000275380946709782
0.000275379630261656
0.000275376249204506
0.000275367847644728
0.000275347696754364
0.000275301130553569
0.000275197624803597
0.000274976695768906
0.000274524625231
0.000273639313227093
0.000271982726099613
0.000269025421644082
0.000263995591674755
0.000255854087439966
0.000243322652193856
0.000224989510445486
0.00019950086415513
0.00016582026242832
0.000123507946131669
7.29502265320178e-05
1.50151484956092e-05
5.12588700275437e-07
5.10452058789057e-07
1.50040324512593e-05
7.3037647768637e-05
0.000123718873914228
0.000166154803778901
0.000199956082894112
0.00022555687655329
0.000243987961552516
0.000256599393257781
0.00026480194338448
0.000269875336404746
0.000272861763458515
0.000274536631343375
0.000275432745028999
0.000275890838090456
0.000276114942196966
0.000276220032492799
0.000276267346400061
0.000276287828570682
0.000276296364707145
0.000276299791839993
0.000276301116298004
0.000276301606466621
0.000276301776252955
0.000276301823532977
0.000276301814808886
0.000276301750841083
0.00027630156659888
0.000276301067341483
0.00027629974748612
0.000276296358012387
0.000276287935602914
0.000276267733759075
0.000276221046479691
0.000276117263475776
0.000275895725821872
0.000275442378552271
0.000274554512556768
0.000272893060954218
0.00026992694475236
0.000264881944588356
0.000256715624649054
0.000244145604706585
0.000225755384706828
0.000200186278373284
0.000166397360830029
0.000123945409609321
7.32147478537073e-05
1.50698476735771e-05
5.14395979260991e-07
5.11528774384705e-07
1.50366656778739e-05
7.31964248116145e-05
0.00012398324457366
0.000166505858575687
0.000200375650960464
0.000226028474057194
0.0002444974594807
0.000257135339398373
0.000265355555158514
0.00027044023784883
0.000273433567508746
0.00027511247564468
0.000276010855390997
0.00027647016788737
0.000276694902650238
0.000276800307086455
0.000276847772172379
0.000276868324970632
0.000276876893397753
0.000276880335180257
0.00027688166638322
0.000276882159799046
0.000276882331254656
0.000276882379456736
0.000276882371222675
0.000276882307404893
0.000276882122980507
0.00027688162305786
0.000276880301540879
0.00027687690795203
0.000276868475130079
0.000276848247023873
0.000276801495236438
0.000276697559958676
0.000276475679119399
0.000276021595742426
0.000275132229625121
0.000273467876395558
0.000270496436498632
0.000265442173954727
0.000257260570086736
0.000244666614839873
0.000226240776259781
0.000200621208983729
0.000166764066842392
0.000124223820008989
7.33833847285591e-05
1.51047529052202e-05
5.15549409000729e-07
5.12028031538808e-07
1.505185160299e-05
7.3270755262567e-05
0.000124107714509144
0.000166671981210225
0.000200575105328991
0.000226253582996143
0.000244741535991839
0.000257392872190727
0.000265622240764914
0.000270712890630733
0.000273709946075862
0.000275391084123535
0.000276290743939425
0.000276750761947596
0.000276975870633121
0.000277081466088119
0.000277129025571825
0.000277149623769497
0.000277158213665915
0.000277161665604908
0.000277163001740017
0.000277163497687716
0.000277163670534797
0.000277163719555237
0.00027716371179137
0.000277163648182184
0.000277163463783362
0.000277162963772976
0.000277161642111253
0.000277158248256877
0.000277149814476307
0.00027712958254242
0.00027708281758865
0.00027697884312341
0.000276756858382749
0.000276302524399469
0.000275412601113299
0.000273747096618493
0.000270773434158403
0.000265715148025731
0.000257526693962874
0.000244921741872175
0.000226479211457713
0.000200835614662288
0.000166945548850009
0.000124362199518359
7.34676045441637e-05
1.51222773058942e-05
5.16130955577952e-07
5.11990996100377e-07
1.50508054258342e-05
7.3266402164631e-05
0.000124101788855076
0.000166665691725275
0.000200569305787656
0.000226248811355335
0.000244738054585642
0.000257390720900781
0.000265621302037949
0.000270712957763626
0.000273710783099808
0.000275392470025074
0.000276292496426036
0.000276752745083974
0.000276977991214616
0.000277083664705451
0.000277131266725011
0.000277151887423736
0.000277160489057781
0.000277163947172906
0.000277165286674699
0.000277165784562343
0.000277165958584413
0.000277166008345195
0.000277166001032476
0.000277165937670381
0.000277165753465499
0.000277165253884227
0.000277163933502678
0.000277160543075294
0.000277152117468441
0.000277131903385384
0.000277085174741226
0.000276981269629333
0.000276759409645484
0.000276305286982095
0.000275415700031804
0.000273750696707765
0.000270777729770778
0.000265720335843524
0.000257532927005413
0.000244929068385468
0.000226487507846715
0.00020084452339417
0.000166954427935018
0.000124370081058066
7.3473148496059e-05
1.51236278517616e-05
5.16181600418825e-07
5.11417968725058e-07
1.50335372755972e-05
7.31834074939189e-05
0.000123965505846341
0.00016648700941738
0.000200358252370038
0.000226014148908701
0.000244487007497283
0.000257128891343012
0.000265352765013866
0.000270440487065712
0.000273436146843618
0.000275116717755758
0.000276016208991802
0.000276476221282151
0.000276701373245971
0.000276807014609434
0.000276854608837321
0.000276875229924839
0.000276883833944103
0.000276887294425542
0.000276888635798734
0.000276889135058836
0.000276889310044709
0.000276889360466341
0.000276889353583372
0.00027688929050783
0.000276889106675617
0.000276888608071979
0.000276887290474215
0.000276883907345004
0.000276875499427833
0.000276855325657306
0.000276808684315512
0.000276704959873988
0.000276483458080186
0.000276030016329125
0.000275141670603961
0.000273478836320227
0.000270509501693761
0.000265457935217469
0.000257279482695028
0.000244688813701358
0.000226265874708554
0.000200648114865561
0.000166790835873881
0.000124247537594734
7.3400035847808e-05
1.51088040574329e-05
5.1570123669171e-07
5.10268789918952e-07
1.49988625436537e-05
7.30161214351538e-05
0.000123689464594301
0.000166123473817127
0.000199927099130561
0.000225532975485059
0.000243970519581336
0.000256588666294072
0.000264797377768305
0.000269875907955027
0.00027286628428684
0.000274543976550403
0.000275441981502284
0.000275901266915881
0.000276126082579719
0.000276231577223184
0.000276279111580239
0.000276299710291641
0.000276308307110311
0.000276311766063294
0.000276313107776347
0.000276313607821444
0.000276313783546867
0.000276313834542752
0.00027631382806807
0.000276313765329824
0.00027631358208185
0.000276313085083743
0.000276311771958585
0.000276308400426999
0.000276300020691015
0.000276279911866071
0.000276233413511407
0.000276129990857495
0.000275909100419846
0.000275456847404023
0.000274570718969794
0.000272911848815378
0.000269949301436022
0.000264908856367515
0.000256747836781706
0.000244183308528495
0.000225797882703484
0.000200231686193332
0.000166442380109104
0.000123985153536096
7.32425508107481e-05
1.50765976178032e-05
5.14648899678177e-07
5.08462400735463e-07
1.49443915029843e-05
7.27531731486719e-05
0.000123254784244938