/*--------------------------------*- C++ -*----------------------------------*\
  =========                 |
  \\      /  F ield         | OpenFOAM: The Open Source CFD Toolbox
   \\    /   O peration     | Website:  https://openfoam.org
    \\  /    A nd           | Version:  10
     \\/     M anipulation  |
\*---------------------------------------------------------------------------*/
FoamFile
{
    format      ascii;
    class       volScalarField;
    location    "7.8";
    object      nut;
}
// * * * * * * * * * * * * * * * * * * * * * * * * * * * * * * * * * * * * * //

dimensions      [0 2 -1 0 0 0 0];

internalField   nonuniform List<scalar> 
2500
(
5.6865552727705e-15
1.11874039569601e-13
4.79048534323906e-13
8.33802126904871e-13
1.14394609846031e-12
1.39827237262328e-12
1.59444202149653e-12
1.73694795469663e-12
1.83458035517026e-12
1.89776289577963e-12
1.93645221072816e-12
1.95891010900363e-12
1.97129092939986e-12
1.97778557471376e-12
1.98103342051517e-12
1.98258451936014e-12
1.98329309213196e-12
1.98360309432984e-12
1.98373305345243e-12
1.98378520077447e-12
1.98380513483174e-12
1.98381229553844e-12
1.98381462279239e-12
1.98381522493042e-12
1.98381524579532e-12
1.98381503128499e-12
1.98381454123679e-12
1.98381326011135e-12
1.98380971233802e-12
1.98380010278993e-12
1.98377507164429e-12
1.98371241404624e-12
1.98356153187841e-12
1.98321190468015e-12
1.98243275608895e-12
1.98076480818638e-12
1.97733981381971e-12
1.9706052177769e-12
1.95794780898536e-12
1.93525288811676e-12
1.89650822933843e-12
1.83365355838362e-12
1.73694539273692e-12
1.59608690063885e-12
1.40219590014962e-12
1.15034272917935e-12
8.42004161895676e-13
4.87004775641994e-13
1.15091008241999e-13
5.9456783747968e-15
5.63235776951547e-13
2.90642936437853e-11
1.27038386786233e-10
2.21258521913233e-10
3.03733873023226e-10
3.71512553247271e-10
4.23937032431007e-10
4.62146298757755e-10
4.88423090901848e-10
5.05499705771104e-10
5.16004308580897e-10
5.22131677321074e-10
5.25526985213571e-10
5.27317577478104e-10
5.28217937764237e-10
5.28650344655686e-10
5.28849002512352e-10
5.28936420253597e-10
5.28973285838163e-10
5.28988171697988e-10
5.28993902438457e-10
5.28995980067916e-10
5.2899666570899e-10
5.28996850141024e-10
5.28996863070513e-10
5.28996804590031e-10
5.28996663098526e-10
5.28996291019884e-10
5.28995265663733e-10
5.28992505628314e-10
5.28985358286312e-10
5.28967565671964e-10
5.2892494737005e-10
5.28826706864187e-10
5.28608909246191e-10
5.28145050204122e-10
5.27197398811206e-10
5.25343362839919e-10
5.21875862786786e-10
5.15688146632743e-10
5.05172682983923e-10
4.88187255561866e-10
4.62158317193564e-10
4.24384687652965e-10
3.72557235137258e-10
3.05421245812884e-10
2.23409233279733e-10
1.2911499058372e-10
2.98834489914701e-11
5.87946042163843e-13
1.99741380098626e-12
5.22086216921402e-10
1.7941906703948e-07
3.11965960730738e-07
4.27300057758027e-07
5.21784532035103e-07
5.94743247862316e-07
6.47900750199243e-07
6.8448788153515e-07
7.08307744158664e-07
7.22998087026815e-07
7.31594073841593e-07
7.36374433220022e-07
7.38905356316705e-07
7.40183281672832e-07
7.40799693774902e-07
7.410841695159e-07
7.41209937165945e-07
7.41263235262664e-07
7.41284869943125e-07
7.41293249577088e-07
7.41296312059507e-07
7.41297336292996e-07
7.41297620685557e-07
7.41297648744594e-07
7.41297568470072e-07
7.41297362193173e-07
7.41296818006424e-07
7.41295323994608e-07
7.41291320631582e-07
7.41280995748364e-07
7.41255388028678e-07
7.41194265254878e-07
7.41053851469513e-07
7.40743609084436e-07
7.4008508182486e-07
7.38744188554368e-07
7.36129305404578e-07
7.31254106419674e-07
7.22579790052241e-07
7.07877085809117e-07
6.84179315681538e-07
6.47919434142407e-07
5.95334309291248e-07
5.2315844019874e-07
4.29515990870906e-07
3.14786909658737e-07
1.82134516913828e-07
5.35505100407769e-10
2.07190714924714e-12
3.5341810917379e-12
9.30250150335245e-10
3.20843427364466e-07
5.55980669903825e-07
7.59384424164142e-07
9.25270301526723e-07
1.05293954718789e-06
1.14575000366083e-06
1.20954447030735e-06
1.25105342986624e-06
1.27665322519655e-06
1.29163953183431e-06
1.29998014293359e-06
1.30440056922902e-06
1.30663529838021e-06
1.30771473481965e-06
1.30821366944916e-06
1.30843462567417e-06
1.30852843939537e-06
1.30856660196124e-06
1.30858142200667e-06
1.30858685791565e-06
1.30858868702919e-06
1.30858920140919e-06
1.30858925869327e-06
1.30858912584606e-06
1.30858876985381e-06
1.30858782824401e-06
1.30858524133223e-06
1.30857830538351e-06
1.30856040455953e-06
1.30851597350147e-06
1.30840984326002e-06
1.30816587061911e-06
1.30762649140415e-06
1.30648100051131e-06
1.30414753513905e-06
1.2995953540253e-06
1.29110543037927e-06
1.27599427338119e-06
1.25036994887802e-06
1.20904174752406e-06
1.14574166977433e-06
1.05380055491386e-06
9.27322240020924e-07
7.62714555969124e-07
5.60214844015883e-07
3.24878106977671e-07
9.49740870512776e-10
3.6404001622747e-12
5.04720933980166e-12
1.3292204487413e-09
4.57471724634549e-07
7.90233825466698e-07
1.07665520791336e-06
1.30934908847272e-06
1.48793227656733e-06
1.61750922823563e-06
1.70647579756337e-06
1.76433478145432e-06
1.80001792695016e-06
1.82091481669909e-06
1.83255258750012e-06
1.83872590185292e-06
1.84185011909531e-06
1.843361051953e-06
1.84406039396293e-06
1.84437057816441e-06
1.84450250479801e-06
1.84455628015071e-06
1.8445772165873e-06
1.84458492410046e-06
1.84458753403065e-06
1.84458827799856e-06
1.8445883710928e-06
1.8445881936768e-06
1.84458770463051e-06
1.84458640255034e-06
1.84458282318987e-06
1.84457322175183e-06
1.84454842443056e-06
1.84448682583683e-06
1.84433956584101e-06
1.8440007741449e-06
1.84325121874766e-06
1.84165833170415e-06
1.83841162188175e-06
1.83207468661679e-06
1.82025081278322e-06
1.79919624677251e-06
1.76347573443692e-06
1.70582664560094e-06
1.61744798850107e-06
1.48891054268683e-06
1.31175288018336e-06
1.08058504505332e-06
7.95229813851265e-07
4.62206149024782e-07
1.35208915502588e-09
5.17304536377194e-12
6.49660140386962e-12
1.71113491994864e-09
5.8728293200146e-07
1.01152055292399e-06
1.37507770584625e-06
1.66945051221081e-06
1.89482603489456e-06
2.05809386443364e-06
2.1700892853757e-06
2.24289754103278e-06
2.28780241905642e-06
2.31410961511643e-06
2.32876966062549e-06
2.33655261268461e-06
2.34049538129589e-06
2.3424043790274e-06
2.34328911693867e-06
2.34368210558981e-06
2.34384952969642e-06
2.34391791015217e-06
2.34394460133731e-06
2.34395446488321e-06
2.34395782763735e-06
2.34395880067664e-06
2.34395893501004e-06
2.34395872202532e-06
2.34395811502858e-06
2.34395648684202e-06
2.34395201008105e-06
2.34394000003157e-06
2.34390896821216e-06
2.34383183248716e-06
2.34364729543802e-06
2.34322243791757e-06
2.34228183526162e-06
2.34028173977819e-06
2.33620285783757e-06
2.32823797054959e-06
2.31337035803894e-06
2.28688525448555e-06
2.24193179912076e-06
2.16934165204406e-06
2.0579719266568e-06
1.89581578871286e-06
1.67196553699201e-06
1.3792219443462e-06
1.01679555105419e-06
5.92278207352619e-07
1.73557157694404e-09
6.6338518331706e-12
7.85876084610965e-12
2.07018998665771e-09
7.08637802583792e-07
1.2173267739133e-06
1.65156983148035e-06
2.00215656252707e-06
2.27001861112693e-06
2.46380574736588e-06
2.59663743089845e-06
2.68296794107934e-06
2.73621796510109e-06
2.76742610390902e-06
2.78482786925974e-06
2.79407370671779e-06
2.79876200111335e-06
2.80103444348478e-06
2.80208892356902e-06
2.80255796411769e-06
2.80275811050516e-06
2.80284001498411e-06
2.80287206753768e-06
2.80288395884845e-06
2.80288804213613e-06
2.80288924270037e-06
2.80288942379065e-06
2.80288918350542e-06
2.80288847211953e-06
2.80288655020335e-06
2.80288126693397e-06
2.80286709687185e-06
2.8028304766246e-06
2.8027394060076e-06
2.80252140052893e-06
2.80201917481078e-06
2.80090662011626e-06
2.79853960007076e-06
2.79371011772406e-06
2.78427558728873e-06
2.76665818385411e-06
2.73526371817553e-06
2.68195778282652e-06
2.59584051627507e-06
2.46363264033291e-06
2.2709571704997e-06
2.00461944735883e-06
1.65565718472597e-06
1.2225389052753e-06
7.13587234877339e-07
2.09493656730802e-09
8.00152021310496e-12
9.11723854004961e-12
2.40216933417405e-09
8.20332986334463e-07
1.40589007083137e-06
1.90405867148593e-06
2.3052499768098e-06
2.61124219182882e-06
2.8323698867267e-06
2.98385259631826e-06
3.08228703133269e-06
3.14301145543885e-06
3.17861402526358e-06
3.19847786846182e-06
3.20903981793211e-06
3.21440028636902e-06
3.21700121847326e-06
3.21820954017579e-06
3.21874772560288e-06
3.21897773235692e-06
3.21907203490885e-06
3.21910903370124e-06
3.21912281448634e-06
3.21912758140344e-06
3.21912900652686e-06
3.21912924034017e-06
3.2191289795746e-06
3.21912817580797e-06
3.21912599056791e-06
3.21911998720373e-06
3.21910389537242e-06
3.21906230969732e-06
3.21895885678158e-06
3.21871108932492e-06
3.21813999260872e-06
3.21687420604585e-06
3.21417987728728e-06
3.2086802366868e-06
3.19793256893604e-06
3.17785664276924e-06
3.14207041695091e-06
3.08128864938506e-06
2.9830566052584e-06
2.83217067909425e-06
2.61210569680828e-06
2.30756677709898e-06
1.9079190994295e-06
1.41081862731056e-06
8.25036077134641e-07
2.42637406566412e-09
9.26125054860382e-12
1.02612928759419e-11
2.70428093923282e-09
9.21604422789269e-07
1.57618016562112e-06
2.13143159850909e-06
2.57763878892811e-06
2.91746742848346e-06
3.16282432557764e-06
3.3308277294941e-06
3.43998586006069e-06
3.50733739953212e-06
3.54684093205474e-06
3.56889379662879e-06
3.58062809455969e-06
3.58658861123009e-06
3.58948350449453e-06
3.59082987733682e-06
3.59143030592554e-06
3.59168729235106e-06
3.59179284922823e-06
3.5918343671238e-06
3.59184989194003e-06
3.59185530129468e-06
3.59185694603221e-06
3.59185723739097e-06
3.59185696270665e-06
3.59185607722649e-06
3.59185365712596e-06
3.59184701520507e-06
3.59182922740834e-06
3.59178326904653e-06
3.5916689161122e-06
3.59139493677744e-06
3.59076313266898e-06
3.58936214976129e-06
3.58637877521265e-06
3.58028684436713e-06
3.56837783462471e-06
3.54612638689439e-06
3.50645216628083e-06
3.43904934845902e-06
3.33008279672262e-06
3.1626365722708e-06
2.91826471032775e-06
2.57977471783484e-06
2.13498118922491e-06
1.58070605168346e-06
9.25947397380883e-07
2.72741504221135e-09
1.04036365691014e-11
1.12852320844778e-11
2.97502292983309e-09
1.01209389192595e-06
1.72782474159409e-06
2.33342214238081e-06
2.81920949003668e-06
3.18873244889504e-06
3.45533255914803e-06
3.63781799194996e-06
3.75638040478955e-06
3.82954887942505e-06
3.87248088214274e-06
3.89646074408639e-06
3.90922903336652e-06
3.91571993772825e-06
3.9188753041488e-06
3.92034433920708e-06
3.9210002467553e-06
3.92128137047145e-06
3.92139704345528e-06
3.92144265013644e-06
3.92145976914014e-06
3.92146577616691e-06
3.92146763270704e-06
3.92146798509556e-06
3.92146770265281e-06
3.92146674532934e-06
3.92146411700381e-06
3.92145691297711e-06
3.92143764110427e-06
3.92138786718873e-06
3.92126401052575e-06
3.92096717147433e-06
3.92028238705811e-06
3.91876331799198e-06
3.91552727281268e-06
3.90891721376414e-06
3.89599166348086e-06
3.87183503349083e-06
3.82875466671078e-06
3.75554949463493e-06
3.63717260412761e-06
3.45520235847928e-06
3.18949749437e-06
2.82117673587242e-06
2.3366460434545e-06
1.7319102647723e-06
1.01603222263576e-06
2.99681851122714e-09
1.14241003405283e-11
1.21877992091759e-11
3.21403200982006e-09
1.09179831745663e-06
1.861013968301e-06
2.51047521676895e-06
3.03066176611071e-06
3.42595575008396e-06
3.71098164637407e-06
3.90602931422171e-06
4.03275419738528e-06
4.11097664116474e-06
4.15689151144406e-06
4.18255072338221e-06
4.19622187455241e-06
4.20317692429862e-06
4.20656079489545e-06
4.20813773506121e-06
4.20884260097455e-06
4.20914510461039e-06
4.20926978046156e-06
4.20931904998431e-06
4.20933761172468e-06
4.20934416898679e-06
4.20934622694536e-06
4.20934664229995e-06
4.20934635732252e-06
4.2093453375469e-06
4.20934252592165e-06
4.20933483106213e-06
4.20931427212657e-06
4.20926120049556e-06
4.20912913934794e-06
4.20881256501783e-06
4.20808201610762e-06
4.206460869022e-06
4.20300624450847e-06
4.19594766925972e-06
4.18214167407298e-06
4.15633423118549e-06
4.11030155066504e-06
4.03206587664113e-06
3.90552850053256e-06
3.71095930227098e-06
3.4267395816545e-06
3.03250660159408e-06
2.51341002042672e-06
1.86468280117648e-06
1.09534030437545e-06
3.23442674918494e-09
1.23222990975564e-11
1.29715064151287e-11
3.42191736061936e-09
1.16101339660225e-06
1.97640170194921e-06
2.66361368607421e-06
3.21334926613977e-06
3.63075894103038e-06
3.93159294345394e-06
4.13742143593907e-06
4.27115661255016e-06
4.35372455697305e-06
4.40220788118605e-06
4.42931563250671e-06
4.44376710228937e-06
4.45112419515004e-06
4.45470648830926e-06
4.45637738866482e-06
4.45712502066663e-06
4.45744626995336e-06
4.45757887679528e-06
4.45763139432691e-06
4.45765124838818e-06
4.45765830684234e-06
4.45766055386151e-06
4.45766103233531e-06
4.45766074908228e-06
4.45765967559531e-06
4.45765670397607e-06
4.45764858433563e-06
4.45762691985515e-06
4.45757102664051e-06
4.45743195571267e-06
4.45709852226831e-06
4.45632886108123e-06
4.45462041661113e-06
4.45097873576596e-06
4.44353609474436e-06
4.42897579573421e-06
4.40175351461913e-06
4.35318985103487e-06
4.27064075514737e-06
4.13710498408955e-06
3.93172869884778e-06
3.63162166981571e-06
3.21513952794127e-06
2.66633052016621e-06
1.97971995729281e-06
1.1642048560221e-06
3.44100219706718e-09
1.31014627084432e-11
1.36419327523425e-11
3.60008514804266e-09
1.22027577124311e-06
2.07500860935918e-06
2.7943112421441e-06
3.36913063582956e-06
3.80530280031642e-06
4.11954829738362e-06
4.33452782195671e-06
4.47421892019275e-06
4.56048338203027e-06
4.61115492223944e-06
4.63949897932072e-06
4.65461779116817e-06
4.66231949703083e-06
4.66607229601569e-06
4.66782416278345e-06
4.66860876370648e-06
4.66894627831531e-06
4.66908579934604e-06
4.66914116705092e-06
4.66916216649885e-06
4.66916967650521e-06
4.66917209863243e-06
4.66917263877037e-06
4.66917236055382e-06
4.66917124145172e-06
4.66916813156131e-06
4.6691596479225e-06
4.66913704353504e-06
4.66907876168498e-06
4.6689337665088e-06
4.66858608878054e-06
4.6677833698363e-06
4.66600109764188e-06
4.66220112271476e-06
4.6544332855143e-06
4.63923400480682e-06
4.61081277567769e-06
4.56010381829832e-06
4.47389804352991e-06
4.33442874868134e-06
4.11988853387874e-06
3.80630646515736e-06
3.370944415315e-06
2.79690052962281e-06
2.07806783532114e-06
1.22318619751966e-06
3.61805529953869e-09
1.37676957766886e-11
1.42070038680219e-11
3.75055710140636e-09
1.27030494073073e-06
2.15812772345466e-06
2.90437076403351e-06
3.50022861484459e-06
3.95213329096738e-06
4.27762747438074e-06
4.50028762756223e-06
4.64498288262982e-06
4.73435734527643e-06
4.78687287481408e-06
4.81626068712814e-06
4.83194407707853e-06
4.839938001128e-06
4.84383575006158e-06
4.84565664203739e-06
4.8464728602158e-06
4.84682433785124e-06
4.84696982246259e-06
4.84702766449465e-06
4.84704966807622e-06
4.84705758026397e-06
4.84706016230525e-06
4.84706076143384e-06
4.84706049078318e-06
4.84705933352675e-06
4.84705610549403e-06
4.84704731331741e-06
4.84702391860154e-06
4.84696363725669e-06
4.84681369210194e-06
4.8464541172229e-06
4.84562377958381e-06
4.84377979258051e-06
4.83984741532262e-06
4.83180742467009e-06
4.81607314760472e-06
4.78664774925003e-06
4.73414161897734e-06
4.64487213199736e-06
4.50043108538456e-06
4.27821168033389e-06
3.95333593673345e-06
3.50214476343562e-06
2.90692933788837e-06
2.16103044487816e-06
1.27301556813587e-06
3.76766811942322e-09
1.43292698601127e-11
1.46762758981523e-11
3.87578822843277e-09
1.31194606989184e-06
2.22723323602992e-06
2.99580818572606e-06
3.60909640523505e-06
4.07403605578841e-06
4.40885483563937e-06
4.63788737170536e-06
4.78673932501865e-06
4.87870086008847e-06
4.93275292557828e-06
4.96301213661162e-06
4.97916788282843e-06
4.98740686771152e-06
4.9914264891803e-06
4.99330558268873e-06
4.99414854614325e-06
4.99451187981151e-06
4.9946624520565e-06
4.99472241863176e-06
4.99474529272825e-06
4.99475355891777e-06
4.99475628503244e-06
4.99475693957822e-06
4.99475667830798e-06
4.9947554897172e-06
4.99475216205009e-06
4.99474311145806e-06
4.99471905999616e-06
4.99465712472104e-06
4.9945030930001e-06
4.99413370050859e-06
4.99328056573478e-06
4.99138561048721e-06
4.98734382168012e-06
4.97907881326332e-06
4.96290200196322e-06
4.93264570726866e-06
4.87865218315631e-06
4.78684674764348e-06
4.6382901083818e-06
4.40971353474575e-06
4.07548733411555e-06
3.61118722448804e-06
2.9984291799847e-06
2.23008145113982e-06
1.31454018223546e-06
3.89231889399737e-09
1.47959291404415e-11
1.50602522567398e-11
3.97849112749574e-09
1.34611557285988e-06
2.28389481187778e-06
3.07074415703582e-06
3.69829346552977e-06
4.1739014079338e-06
4.51635716523795e-06
4.75061414678604e-06
4.90287845830637e-06
4.9969671039684e-06
5.0522847738254e-06
5.08326316609439e-06
5.09980961544716e-06
5.10825178805023e-06
5.11237272438286e-06
5.11430034234823e-06
5.11516567686107e-06
5.11553896523177e-06
5.11569382945519e-06
5.11575559984504e-06
5.11577922007267e-06
5.1157877941822e-06
5.11579064840654e-06
5.11579135413492e-06
5.11579110343562e-06
5.11578988968751e-06
5.11578647923496e-06
5.11577721504137e-06
5.11575262475431e-06
5.11568933865694e-06
5.11553197578072e-06
5.11515458403932e-06
5.11428286937532e-06
5.11234635141724e-06
5.10821528682899e-06
5.09976656875798e-06
5.0832282940143e-06
5.05229308132239e-06
4.99708392782703e-06
4.90320558838613e-06
4.75128456268207e-06
4.51751088370088e-06
4.17563981549451e-06
3.70061972876515e-06
3.07350983828008e-06
2.28678161771911e-06
1.34867125164052e-06
3.99471447323315e-09
1.51782362936611e-11
1.53697643773547e-11
4.06147529637287e-09
1.37375173101465e-06
2.32970051375963e-06
3.13130704061886e-06
3.77037454500705e-06
4.25460381230248e-06
4.60323677289623e-06
4.84172457609518e-06
4.99675622472835e-06
5.09257277458576e-06
5.14892045639704e-06
5.18048537259885e-06
5.19735118452867e-06
5.20595985648725e-06
5.21016403848438e-06
5.21213164498974e-06
5.2130154764221e-06
5.21339702729143e-06
5.2135554708895e-06
5.2136187552685e-06
5.21364300763904e-06
5.21365184640464e-06
5.21365481308265e-06
5.21365556536173e-06
5.21365532592168e-06
5.21365409254949e-06
5.21365061447493e-06
5.21364117629779e-06
5.21361615006686e-06
5.21355177577753e-06
5.21339173436416e-06
5.21300791289971e-06
5.21212125867212e-06
5.21015130034313e-06
5.20594835770578e-06
5.19735163813312e-06
5.18052200626339e-06
5.14903933083117e-06
5.09284963932381e-06
4.99729895796827e-06
4.84266335314939e-06
4.60469601169863e-06
4.25665552101346e-06
3.77298278657853e-06
3.13428449905303e-06
2.33270478881521e-06
1.37633704032812e-06
4.07763825165416e-09
1.54869862798333e-11
1.56154423278461e-11
4.12750855724198e-09
1.39577229140386e-06
2.36619107193806e-06
3.17955047890963e-06
3.82779553914241e-06
4.31889969277768e-06
4.6724638922747e-06
4.9143336707042e-06
5.07158090582325e-06
5.16878331839519e-06
5.2259587617552e-06
5.25799606385331e-06
5.27511970276338e-06
5.28386313971003e-06
5.28813488964766e-06
5.29013505290626e-06
5.29103399493852e-06
5.29142232223321e-06
5.29158371565394e-06
5.29164825582581e-06
5.29167303747175e-06
5.29168210099722e-06
5.29168516516502e-06
5.2916859592206e-06
5.29168573134748e-06
5.29168448324907e-06
5.29168095103546e-06
5.29167137350783e-06
5.29164600008641e-06
5.29158076254221e-06
5.29141859971695e-06
5.29102968680337e-06
5.2901311963233e-06
5.28813472315041e-06
5.28387474146115e-06
5.27516048613862e-06
5.25809932424242e-06
5.22618137952026e-06
5.16921179441325e-06
5.07233060984632e-06
4.91553489051026e-06
4.67422998155167e-06
4.3212787959037e-06
3.83071737503598e-06
3.18278989377715e-06
2.36937493220884e-06
1.39844271513044e-06
4.14381990589391e-09
1.5732710330165e-11
1.58072911453315e-11
4.17920507902688e-09
1.4130402652754e-06
2.39480718558581e-06
3.21738752403975e-06
3.87283838575172e-06
4.36934596087291e-06
4.7267909050573e-06
4.97132621431406e-06
5.13032268920755e-06
5.22862137222064e-06
5.28645300077843e-06
5.31886564480241e-06
5.3361946611291e-06
5.34504574043074e-06
5.34937161857914e-06
5.35139794641341e-06
5.35230907540183e-06
5.35270289035802e-06
5.35286668455347e-06
5.35293225358096e-06
5.35295747302045e-06
5.35296672514856e-06
5.35296987284366e-06
5.35297070395585e-06
5.35297048766034e-06
5.35296922910771e-06
5.35296565459713e-06
5.3529559676735e-06
5.35293032286063e-06
5.35286441277094e-06
5.35270059920994e-06
5.35230772375178e-06
5.35140001345406e-06
5.34938286389405e-06
5.34507835371264e-06
5.33627224987203e-06
5.3190300024615e-06
5.28677138153226e-06
5.22919104752192e-06
5.13126747173605e-06
4.97277884017482e-06
4.72885754936509e-06
4.37205585950145e-06
3.87609149716239e-06
3.22092255983418e-06
2.39821576080046e-06
1.41583806229643e-06
4.19583073378448e-09
1.59252827985398e-11
1.59543765886835e-11
4.21894127850492e-09
1.42633823309715e-06
2.41685018919253e-06
3.24654166876379e-06
3.90755535654947e-06
4.4082396497051e-06
4.76868880831588e-06
5.01529112448994e-06
5.17564666732157e-06
5.27479890903861e-06
5.33314263772349e-06
5.36584894977874e-06
5.38333909456413e-06
5.39227487401335e-06
5.39664347942007e-06
5.39869053216177e-06
5.39961135126275e-06
5.40000954867194e-06
5.40017527035389e-06
5.40024167123705e-06
5.40026724823063e-06
5.4002766567319e-06
5.40027987520565e-06
5.40028073886433e-06
5.40028053394905e-06
5.40027926862432e-06
5.40027566210258e-06
5.40026589146585e-06
5.40024003950206e-06
5.40017361735615e-06
5.40000854766177e-06
5.39961265432398e-06
5.39869791160011e-06
5.396664964342e-06
5.39232637648829e-06
5.38344987685825e-06
5.36606866181388e-06
5.33354832023068e-06
5.27549837162828e-06
5.17677271377715e-06
5.01698070119199e-06
4.7710440949512e-06
4.41127524798691e-06
3.91114569147485e-06
3.25039146461159e-06
2.42051316237479e-06
1.42929327826585e-06
4.23600540114202e-09
1.60736322233614e-11
1.60646131933662e-11
4.24879804351422e-09
1.43635065190144e-06
2.43345520509778e-06
3.26851361870898e-06
3.93373139516522e-06
4.43757718571747e-06
4.80030438755274e-06
5.04847721372678e-06
5.20986767131214e-06
5.30967148140362e-06
5.36840717058881e-06
5.40133890812292e-06
5.41895312562202e-06
5.42795434563604e-06
5.43235608210925e-06
5.43441926797188e-06
5.43534766275399e-06
5.43574930320346e-06
5.43591654824697e-06
5.43598361175457e-06
5.4360094767663e-06
5.43601901333239e-06
5.43602229116306e-06
5.43602318317972e-06
5.43602298931139e-06
5.43602172034514e-06
5.43601809065646e-06
5.4360082581978e-06
5.4359822533306e-06
5.43591545378565e-06
5.43574945777462e-06
5.43535133430285e-06
5.43443138051042e-06
5.43238669361492e-06
5.4280227138017e-06
5.4190936349006e-06
5.40160840747323e-06
5.36889183038334e-06
5.31048924713179e-06
5.21116056250541e-06
5.0503876340179e-06
4.80293301924783e-06
4.44092754469111e-06
3.93765611612902e-06
3.27268579847326e-06
2.43738951691419e-06
1.43948228737403e-06
4.26638829729254e-09
1.61855481463796e-11
1.61446392790496e-11
4.2705255412099e-09
1.44365302505312e-06
2.44557494861424e-06
3.2845614607793e-06
3.95286179715643e-06
4.45903035122208e-06
4.82343499104582e-06
5.07276714761385e-06
5.2349236784278e-06
5.33521126736038e-06
5.39423894751289e-06
5.42733922054167e-06
5.44504655890885e-06
5.45409709881783e-06
5.45852391623422e-06
5.4605993739553e-06
5.46153356167574e-06
5.46193785073783e-06
5.46210627615904e-06
5.46217385799069e-06
5.46219995133451e-06
5.46220959142205e-06
5.4622129185573e-06
5.46221383514564e-06
5.46221365191605e-06
5.4622123819383e-06
5.46220873664114e-06
5.46219886101049e-06
5.46217274917694e-06
5.4621056856901e-06
5.46193904020942e-06
5.46153934599785e-06
5.46061570239809e-06
5.45856265916346e-06
5.45418051749359e-06
5.44521366918104e-06
5.42765344841282e-06
5.39479493576164e-06
5.3361366109114e-06
5.23636960865572e-06
5.07488234639778e-06
4.82632051903198e-06
4.46268146851509e-06
3.95711252327946e-06
3.28905561286006e-06
2.44978808641765e-06
1.44697245302164e-06
4.2887007289784e-09
1.62675678900793e-11
1.61997589186781e-11
4.28552562459861e-09
1.44870642917544e-06
2.45397180155003e-06
3.29569119319667e-06
3.9661417331926e-06
4.47393511799465e-06
4.83951687150173e-06
5.08966542852716e-06
5.25236353656547e-06
5.35299461263037e-06
5.41223058485015e-06
5.4454516968052e-06
5.46322616925373e-06
5.47231247451866e-06
5.4767575938496e-06
5.4788420666099e-06
5.47978054099601e-06
5.48018680616436e-06
5.48035612097874e-06
5.48042409837865e-06
5.48045036908827e-06
5.48046009161425e-06
5.48046345933708e-06
5.48046439713938e-06
5.48046422409649e-06
5.48046295529102e-06
5.48045930083513e-06
5.48044939803267e-06
5.4804232186169e-06
5.48035598818799e-06
5.48018892915578e-06
5.47978822428717e-06
5.47886217910525e-06
5.47680363656405e-06
5.47240942298523e-06
5.46341725080625e-06
5.44580637182043e-06
5.41285137268575e-06
5.35401826751669e-06
5.25395036557732e-06
5.09197088563058e-06
4.84264373357773e-06
4.47787253995888e-06
3.97070767529796e-06
3.30050232788054e-06
2.45846515161012e-06
1.45221922072466e-06
4.30432409229639e-09
1.63249235808324e-11
1.623392932784e-11
4.29484639372507e-09
1.45185575002463e-06
2.45921555612872e-06
3.30265431440014e-06
3.97446380452923e-06
4.48328918524017e-06
4.84962268794828e-06
5.10029584139208e-06
5.26334434478014e-06
5.36419934993419e-06
5.42357223447086e-06
5.45687348432548e-06
5.47469290383747e-06
5.48380339646987e-06
5.48826102481113e-06
5.49035172851968e-06
5.49129320152335e-06
5.49170086758627e-06
5.49187082288415e-06
5.49193909085941e-06
5.491965495355e-06
5.49197528228936e-06
5.49197868312232e-06
5.49197963921365e-06
5.49197947589054e-06
5.49197821006081e-06
5.49197455199138e-06
5.49196463599385e-06
5.49193842362038e-06
5.49187111156936e-06
5.49170384600869e-06
5.49130262023325e-06
5.49037529555061e-06
5.48831373269364e-06
5.48391271210868e-06
5.4749059393928e-06
5.45726530578662e-06
5.42425275342729e-06
5.3653140537343e-06
5.26506243412263e-06
5.10277980007571e-06
4.85297789527648e-06
4.48750021295745e-06
3.97933446357018e-06
3.30777589182793e-06
2.46398738522321e-06
1.45556411189062e-06
4.31429380236585e-09
1.63615285969204e-11
1.62497734410869e-11
4.29918377574744e-09
1.45333006650201e-06
2.46168436967094e-06
3.30594929278019e-06
3.97841990476579e-06
4.48775413399865e-06
4.85446385141973e-06
5.1054039053869e-06
5.26863395173564e-06
5.3696073139141e-06
5.42905409829447e-06
5.462399577837e-06
5.48024438720728e-06
5.48936887350496e-06
5.49383391852508e-06
5.49592841105598e-06
5.49687175642437e-06
5.49728032297843e-06
5.49745070411734e-06
5.49751917354567e-06
5.49754567587009e-06
5.49755551302408e-06
5.49755894145688e-06
5.49755991378043e-06
5.49755975978364e-06
5.49755849809145e-06
5.49755484052917e-06
5.49754492279155e-06
5.4975187075477e-06
5.49745139023147e-06
5.4972841056603e-06
5.49688280397163e-06
5.49595521815483e-06
5.49389287805836e-06
5.4894897966823e-06
5.48047805337801e-06
5.46282636869075e-06
5.42979098165851e-06
5.3708081986165e-06
5.27047677313271e-06
5.10805826870488e-06
4.8580382464585e-06
4.49222948881034e-06
3.98358712387567e-06
3.31137552422618e-06
2.46673209593243e-06
1.45723458445779e-06
4.31929911086034e-09
1.63799842534e-11
1.62485977129736e-11
4.29888486399702e-09
1.45324368953671e-06
2.46156677803684e-06
3.30582446534588e-06
3.97830478010872e-06
4.48765938623732e-06
4.85439468720938e-06
5.10536111841355e-06
5.26861521231609e-06
5.36960852349363e-06
5.42907057736063e-06
5.462426943167e-06
5.48027902336977e-06
5.48940808441275e-06
5.49387585556395e-06
5.49597189589301e-06
5.4969160849413e-06
5.49732509779586e-06
5.49749571174749e-06
5.49756430367822e-06
5.49759087278044e-06
5.49760074841314e-06
5.49760420015183e-06
5.4976051871601e-06
5.49760504211186e-06
5.49760378532075e-06
5.49760013160537e-06
5.49759022237949e-06
5.49756403252856e-06
5.49749678318846e-06
5.49732966074727e-06
5.49692871314006e-06
5.49600184754776e-06
5.49394088312614e-06
5.48954027640933e-06
5.4805327248531e-06
5.46288771181022e-06
5.42986226628225e-06
5.37089328032491e-06
5.27057955407145e-06
5.10818178543281e-06
4.85818345792895e-06
4.49239394613937e-06
3.98376373862386e-06
3.31155156620552e-06
2.46688837073827e-06
1.45734451600875e-06
4.31968476245048e-09
1.63815911527162e-11
1.62304116896574e-11
4.2939525525553e-09
1.45159745199753e-06
2.45886354003573e-06
3.30228021538198e-06
3.974118431856e-06
4.48300473982698e-06
4.84941504206065e-06
5.10016759659905e-06
5.26328864377293e-06
5.36420392798592e-06
5.42362302651601e-06
5.45695725537322e-06
5.47479872014012e-06
5.48392309260946e-06
5.48838899585418e-06
5.49048439888713e-06
5.49142843336561e-06
5.49183745392261e-06
5.49200811518131e-06
5.49207675404646e-06
5.49210336026739e-06
5.49211326312265e-06
5.49211673397838e-06
5.49211773409461e-06
5.49211759757049e-06
5.49211634646321e-06
5.49211270013983e-06
5.49210281030561e-06
5.49207667567182e-06
5.49200957109296e-06
5.49184279953153e-06
5.49144265153498e-06
5.49051751761162e-06
5.48846013684492e-06
5.48406663495018e-06
5.47507258953745e-06
5.45745219667399e-06
5.42446977494745e-06
5.36557283743807e-06
5.26537470132118e-06
5.10315458545893e-06
4.85341788070535e-06
4.48799773676736e-06
3.97986787253355e-06
3.30830663209646e-06
2.46445765735553e-06
1.45589428890796e-06
4.31545061944671e-09
1.63663459092374e-11
1.61939408677474e-11
4.28404848823089e-09
1.44827928960812e-06
2.45338818871356e-06
3.29506938903671e-06
3.96556639014906e-06
4.47346053308044e-06
4.83917036182798e-06
5.08945208315308e-06
5.25227238350331e-06
5.35300534420424e-06
5.41231964390075e-06
5.44559677382609e-06
5.46340875764831e-06
5.47251871226447e-06
5.47697794487655e-06
5.47907043766153e-06
5.48001328457685e-06
5.48042186129289e-06
5.4805923797235e-06
5.48066098827008e-06
5.48068760123156e-06
5.48069751965702e-06
5.48070100518168e-06
5.48070201668823e-06
5.48070188826253e-06
5.48070064384555e-06
5.48069700911068e-06
5.48068715112248e-06
5.48066110520369e-06
5.48059423066597e-06
5.48042801808393e-06
5.48002915829614e-06
5.47910686055241e-06
5.47705546580854e-06
5.472674090301e-06
5.46370362373011e-06
5.4461272113709e-06
5.41322341914595e-06
5.35446110844452e-06
5.25448356842152e-06
5.09260923963113e-06
4.84339104377059e-06
4.47871498416061e-06
3.97160789339867e-06
3.30139491508418e-06
2.45925319718252e-06
1.452770530293e-06
4.30625156035854e-09
1.63329484649809e-11
1.61366127541593e-11
4.26849010592314e-09
1.44306366119581e-06