/*--------------------------------*- C++ -*----------------------------------*\
  =========                 |
  \\      /  F ield         | OpenFOAM: The Open Source CFD Toolbox
   \\    /   O peration     | Website:  https://openfoam.org
    \\  /    A nd           | Version:  10
     \\/     M anipulation  |
\*---------------------------------------------------------------------------*/
FoamFile
{
    format      ascii;
    class       volScalarField;
    location    "7.8";
    object      omega;
}
// * * * * * * * * * * * * * * * * * * * * * * * * * * * * * * * * * * * * * //

dimensions      [0 0 -1 0 0 0 0];

internalField   nonuniform List<scalar> 
2500
(
127898.247375393
127907.681084185
127904.913614806
127902.72952886
127901.301854861
127900.429983033
127899.915581355
127899.619863301
127899.454989
127899.366759331
127899.320692908
127899.297749874
127899.286761195
127899.281425971
127899.2788452
127899.277441233
127899.276819521
127899.276359247
127899.275951668
127899.27569276
127899.275483964
127899.275311731
127899.275173756
127899.275092333
127899.275007414
127899.274941639
127899.274923502
127899.274926579
127899.274958145
127899.275021593
127899.275124821
127899.275318917
127899.275560489
127899.275939896
127899.276601752
127899.277882622
127899.280514919
127899.285939934
127899.297610552
127899.321185743
127899.367824835
127899.457038185
127899.621825752
127899.916038018
127900.428023449
127901.295296405
127902.722583417
127904.918807775
127907.701427147
127898.216742897
31883.7858646178
14169.5683801446
14168.2196238336
14167.1876187847
14166.5041995765
14166.077953038
14165.8202319932
14165.668446252
14165.5817382815
14165.5339502723
14165.5085862902
14165.4956588246
14165.4893305707
14165.4863406141
14165.484974083
14165.4843624528
14165.4840993831
14165.4839794931
14165.4839176758
14165.4838847712
14165.483863583
14165.4838476948
14165.4838354152
14165.4838270989
14165.483819786
14165.4838140136
14165.483811278
14165.4838103954
14165.4838115949
14165.4838163603
14165.4838279745
14165.4838549112
14165.4839123351
14165.4840398454
14165.4843277297
14165.4849808489
14165.4864352767
14165.4895789659
14165.496164196
14165.5094275457
14165.5351686551
14165.5832804605
14165.6699863548
14165.821144291
14166.0774726765
14166.5021070241
14167.1862528153
14168.2251562593
14169.5835422514
31883.7427084777
31797.4210394849
3532.58198423955
50.8620764123788
50.856843037808
50.8534160198639
50.8512895873293
50.8500073741761
50.849252987962
50.8488218291156
50.848583723
50.8484570635475
50.8483923070467
50.8483605017634
50.8483454683846
50.8483386190645
50.8483355981014
50.8483343131042
50.8483337659602
50.8483335215106
50.8483334067823
50.8483333430593
50.8483332992827
50.8483332663643
50.8483332434338
50.8483332246458
50.8483332095985
50.8483332008352
50.8483331960875
50.8483331956608
50.8483332069293
50.8483332453872
50.8483333483236
50.8483336029829
50.8483342060994
50.848335612116
50.8483388523981
50.848346117178
50.8483618591801
50.8483947742844
50.8484610063322
50.8485893324268
50.8488288085336
50.849259975665
50.8500117266523
50.8512882769581
50.8534098048694
50.8568466645716
50.8621265170631
3532.59061075308
31797.4264216082
31717.7429520035
3523.60368481929
50.7321428326018
50.7266609903602
50.7231649948079
50.7210449715777
50.7197930501373
50.7190698943772
50.7186630013169
50.7184412283121
50.7183245823316
50.7182655186539
50.7182367541079
50.7182232707069
50.7182171813144
50.7182145267079
50.7182134115214
50.718212950808
50.7182127571637
50.7182126725336
50.7182126292728
50.7182126006354
50.7182125789032
50.7182125635121
50.7182125514687
50.718212541586
50.7182125348321
50.7182125297921
50.7182125264407
50.7182125298023
50.7182125535616
50.7182126303361
50.718212838684
50.7182133481868
50.7182145556
50.718217378248
50.7182237827716
50.7182378098654
50.7182674320686
50.7183276764412
50.7184457247513
50.7186687670027
50.7190760100436
50.7197976260823
50.7210461661358
50.7231657600577
50.7266805431388
50.7322275175141
3523.61745676128
31717.8501394257
31651.3059446008
3516.20702295158
50.6262255312928
50.6213597125659
50.6183434112849
50.6165593273111
50.615529138933
50.614945396267
50.6146220914339
50.61444809617
50.6143575077328
50.6143120114288
50.6142900011124
50.6142797441702
50.6142751387888
50.6142731460135
50.6142723168645
50.6142719816428
50.6142718470627
50.61427179222
50.6142717666656
50.6142717503796
50.6142717376444
50.6142717285262
50.6142717217099
50.6142717159063
50.6142717112816
50.6142717069066
50.6142717029508
50.6142717018181
50.6142717124289
50.6142717606137
50.614271907995
50.6142722777793
50.614273163362
50.6142752561895
50.6142800482883
50.6142906311462
50.614313163399
50.6143594007187
50.6144509112941
50.6146258160704
50.6149495553813
50.6155327107064
50.616561762665
50.6183492196168
50.6213897859684
50.6263302659447
3516.22413527853
31651.5080698154
31600.6144647563
3510.64601421955
50.5474735766086
50.5436538169277
50.5413524127397
50.5400250350485
50.5392756121574
50.5388589441545
50.5386316394997
50.5385107242904
50.5384483227769
50.5384171876533
50.5384021984942
50.5383952406576
50.5383921281314
50.5383907880436
50.5383902348486
50.5383900152837
50.5383899307197
50.5383898988485
50.538389885848
50.5383898781199
50.5383898716628
50.5383898669686
50.5383898636909
50.538389860703
50.5383898578389
50.5383898544989
50.5383898507923
50.5383898484788
50.53838985092
50.5383898762381
50.5383899699661
50.538390211184
50.5383907934993
50.5383921819442
50.5383953835424
50.5384024982583
50.5384177431994
50.5384492521628
50.5385121394728
50.5386335670295
50.5388611807434
50.5392777213703
50.5400272549974
50.5413596143719
50.5436856243533
50.547578380679
3510.66364891611
31600.8679027323
31564.8975203056
3506.79263865229
50.4935276933776
50.4908139800596
50.4892237612904
50.4883290163868
50.4878348969759
50.4875652018587
50.4874201774027
50.4873438468777
50.4873047509908
50.4872853448005
50.4872760342453
50.4872717226566
50.4872697981081
50.4872689723318
50.4872686337569
50.4872685017056
50.4872684529235
50.4872684361595
50.4872684306582
50.487268427995
50.4872684253915
50.4872684234006
50.4872684222313
50.4872684209548
50.4872684193399
50.4872684170341
50.4872684140596
50.4872684114706
50.4872684107169
50.4872684221634
50.4872684759548
50.4872686203881
50.4872689717456
50.4872698160164
50.4872717732373
50.4872761424646
50.4872855492049
50.4873051005256
50.4873443932345
50.4874209389278
50.4875660913179
50.4878357515917
50.4883303149833
50.4892297290406
50.4908408739051
50.4936170910803
3506.80831653387
31565.1518607597
31541.487993465
3504.31240753766
50.4592106336859
50.4574397503973
50.4564294090447
50.4558744532277
50.4555745152623
50.455413717627
50.4553284306854
50.4552839784211
50.4552613583336
50.4552501754746
50.4552448223431
50.4552423463759
50.4552412423584
50.4552407697608
50.4552405771699
50.4552405033371
50.4552404773006
50.4552404693115
50.4552404673811
50.4552404672042
50.4552404667187
50.4552404661181
50.4552404660743
50.4552404657306
50.4552404649163
50.4552404634589
50.4552404613366
50.4552404591082
50.4552404575545
50.4552404617169
50.4552404900077
50.4552405703628
50.4552407676719
50.4552412450555
50.4552423560978
50.4552448439898
50.4552502181585
50.4552614347075
50.4552841029545
50.4553286026686
50.4554138826544
50.4555745928865
50.455874840385
50.4564332098644
50.4574590241863
50.4592776791207
3504.32475072366
31541.7066768024
31527.1281703827
3502.8198350565
50.4388030755855
50.4377301553438
50.4371334710321
50.4368132529779
50.4366437724318
50.4365544867482
50.4365077510768
50.436483612575
50.4364713990103
50.4364653795848
50.4364625018962
50.4364611712702
50.4364605780846
50.4364603245657
50.4364602218506
50.4364601831636
50.436460170261
50.4364601671986
50.4364601671191
50.4364601675172
50.4364601676702
50.4364601676879
50.436460167903
50.4364601678832
50.4364601674933
50.4364601666569
50.4364601652779
50.4364601636474
50.4364601622646
50.4364601632802
50.4364601769986
50.4364602188389
50.4364603229818
50.4364605764992
50.436461168114
50.436462495242
50.4364653678605
50.4364713806645
50.4364835853027
50.4365077018521
50.436554367089
50.4366435103856
50.4368130681364
50.4371353486029
50.4377422034154
50.4388481917971
3502.82860134318
31527.2949744745
31518.8402819338
3501.97532850421
50.4273936971017
50.4267851468244
50.4264548476873
50.4262815058668
50.4261916101149
50.4261450524783
50.4261209925544
50.4261086718917
50.4261024690785
50.4260994191811
50.4260979618955
50.4260972877577
50.426096987108
50.4260968587581
50.426096807059
50.4260967879465
50.4260967821081
50.4260967812205
50.4260967815505
50.4260967820288
50.4260967823507
50.4260967825794
50.4260967828066
50.4260967828578
50.4260967826971
50.4260967822239
50.4260967813928
50.4260967803292
50.4260967792974
50.4260967792855
50.4260967855207
50.4260968060027
50.4260968580444
50.4260969854338
50.4260972831964
50.4260979515642
50.4260993995154
50.426102435422
50.4261086174581
50.4261209011819
50.4261448802757
50.4261912836275
50.4262810981309
50.4264554795963
50.4267918089578
50.4274213302771
3501.98102258723
31518.9555817678
31514.318612796
3501.52386858813
50.4213672445485
50.4210419412402
50.4208694098055
50.4207807867525
50.4207357260079
50.4207127757898
50.4207010632924
50.420695114419
50.4206921328796
50.4206906693902
50.4206899700388
50.4206896461892
50.4206895016324
50.4206894399705
50.4206894152822
50.4206894063648
50.4206894039537
50.4206894038271
50.4206894041389
50.4206894045174
50.4206894048014
50.4206894050218
50.4206894051909
50.4206894052567
50.4206894051937
50.4206894049329
50.4206894044638
50.4206894038306
50.4206894031653
50.420689402937
50.4206894055909
50.4206894150948
50.420689439857
50.4206895007823
50.4206896432948
50.4206899630549
50.4206906556257
50.4206921085856
50.4206950736152
50.4207009922493
50.4207126391832
50.4207354581042
50.4207803790561
50.4208694233249
50.421045211101
50.4213828124737
3501.52728739673
31514.3918920142
31511.9770658555
3501.2948600667
50.4183468733953
50.4181820696322
50.4180965546562
50.4180535229652
50.4180320593158
50.4180213057364
50.4180158850198
50.4180131535005
50.4180117900531
50.4180111216192
50.4180108019968
50.4180106537687
50.4180105875223
50.4180105592829
50.4180105480473
50.4180105441083
50.418010543179
50.418010543245
50.4180105434795
50.418010543729
50.4180105439236
50.4180105440776
50.4180105441852
50.4180105442362
50.4180105442117
50.4180105440738
50.418010543824
50.4180105434745
50.4180105430895
50.4180105428917
50.4180105439546
50.418010548161
50.4180105594326
50.418010587301
50.4180106524882
50.4180107985606
50.4180111145515
50.4180117771784
50.4180131309282
50.4180158431882
50.4180212195761
50.4180318782257
50.4180532091959
50.4180963551255
50.4181834808578
50.4183550046544
3501.2967737075
31512.0203458726
31510.8219246475
3501.18421420278
50.4169051463345
50.4168256423185
50.416785233574
50.4167652960658
50.4167555350542
50.4167507231585
50.416748327019
50.4167471289032
50.4167465331091
50.4167462412554
50.4167461015532
50.4167460366444
50.4167460075916
50.4167459952145
50.4167459903221
50.4167459886682
50.4167459883379
50.4167459884186
50.4167459885667
50.416745988713
50.4167459888289
50.4167459889209
50.4167459889824
50.4167459890139
50.4167459890039
50.4167459889345
50.4167459888083
50.4167459886274
50.4167459884221
50.4167459882951
50.416745988698
50.4167459904855
50.4167459954136
50.4167460076561
50.4167460362748
50.4167461002703
50.4167462384119
50.4167465276816
50.4167471187651
50.416748306346
50.4167506759946
50.4167554270698
50.4167650888114
50.4167850196959
50.4168261597315
50.4169091070185
3501.18521974393
31510.8458756342
31510.2773480133
3501.13313294369
50.4162476454322
50.4162109744614
50.4161926965644
50.4161838464141
50.4161795910966
50.4161775265117
50.4161765108402
50.4161760068458
50.4161757571057
50.4161756348271
50.4161755762131
50.416175548921
50.4161755366846
50.4161755314748
50.41617552943
50.4161755287679
50.4161755286614
50.4161755287161
50.4161755287991
50.4161755288777
50.4161755289403
50.4161755289899
50.4161755290221
50.4161755290391
50.4161755290349
50.4161755290015
50.4161755289406
50.416175528852
50.4161755287497
50.4161755286801
50.416175528825
50.4161755295566
50.4161755316337
50.4161755368172
50.4161755489207
50.4161755759114
50.4161756340016
50.4161757553616
50.4161760031612
50.4161765020085
50.4161775032655
50.4161795324271
50.4161837235562
50.4161925362805
50.4162111180606
50.4162494521854
3501.13363183788
31510.289849372
31510.0313879739
3501.11054376001
50.4159604931507
50.4159442638089
50.4159363219761
50.4159325449115
50.415930760272
50.4159299078699
50.4159294935707
50.4159292895388
50.415929188776
50.4159291394504
50.4159291157662
50.4159291047121
50.415929099747
50.4159290976345
50.4159290968117
50.4159290965566
50.4159290965266
50.4159290965584
50.4159290966011
50.4159290966403
50.4159290966718
50.4159290966965
50.4159290967122
50.4159290967204
50.4159290967185
50.415929096703
50.4159290966749
50.4159290966336
50.4159290965853
50.4159290965504
50.4159290966001
50.41592909689
50.4159290977363
50.4159290998579
50.4159291048045
50.4159291157994
50.4159291393764
50.4159291884787
50.4159292885784
50.4159294903188
50.4159298973449
50.4159307306701
50.4159324779575
50.4159362208676
50.4159442770708
50.4159612670589
3501.11077862205
31510.0375760333
31509.9248072958
3501.10096419336
50.4158402990292
50.4158333860754
50.4158300610755
50.4158285064788
50.4158277842095
50.415827444495
50.4158272813558
50.4158272016179
50.4158271623662
50.4158271431519
50.4158271339084
50.4158271295833
50.4158271276372
50.4158271268099
50.4158271264907
50.4158271263966
50.4158271263898
50.4158271264057
50.4158271264262
50.4158271264447
50.4158271264594
50.4158271264709
50.415827126478
50.4158271264818
50.4158271264808
50.4158271264739
50.4158271264613
50.4158271264428
50.4158271264211
50.4158271264048
50.415827126421
50.4158271265321
50.4158271268663
50.4158271277077
50.4158271296663
50.4158271340043
50.4158271432673
50.4158271624854
50.4158272015698
50.4158272803674
50.4158274400601
50.4158277701591
50.4158284724196
50.4158300040569
50.4158333670105
50.4158406105933
3501.10106954275
31509.9277254412
31509.8805364144
3501.09707576861
50.4157922151878
50.4157893734407
50.4157880284862
50.4157874097395
50.4157871268841
50.4157869958315
50.4157869336452
50.4157869034789
50.4157868886767
50.4157868814301
50.4157868779371
50.4157868762987
50.4157868755603
50.4157868752469
50.4157868751274
50.4157868750938
50.415786875093
50.4157868751007
50.41578687511
50.4157868751182
50.4157868751247
50.4157868751297
50.4157868751328
50.4157868751343
50.4157868751338
50.4157868751307
50.4157868751252
50.4157868751172
50.4157868751078
50.4157868751004
50.4157868751052
50.4157868751466
50.4157868752744
50.4157868755981
50.4157868763508
50.4157868780119
50.4157868815432
50.415786888838
50.4157869036288
50.4157869334367
50.4157869940746
50.4157871205495
50.4157873933947
50.4157879989052
50.4157893541738
50.4157923329334
3501.09712095811
31509.8818526061
31509.8630301983
3501.09558020397
50.4157740640389
50.4157729339815
50.4157724071214
50.4157721684129
50.415772060968
50.415772011912
50.4157719889095
50.4157719778359
50.41577197242
50.4157719697687
50.4157719684884
50.4157719678868
50.4157719676154
50.4157719675006
50.4157719674575
50.4157719674461
50.4157719674466
50.4157719674502
50.4157719674541
50.4157719674577
50.4157719674604
50.4157719674624
50.4157719674636
50.4157719674641
50.4157719674638
50.4157719674624
50.41577196746
50.4157719674565
50.4157719674524
50.4157719674491
50.4157719674502
50.4157719674649
50.4157719675121
50.4157719676327
50.4157719679135
50.4157719685315
50.4157719698397
50.4157719725304
50.4157719779671
50.4157719889132
50.4157720112509
50.4157720582339
50.4157721609541
50.4157723927671
50.4157729213
50.4157741056271
3501.09559879896
31509.8635999292
31509.8566011473
3501.09505435082
50.4157678874285
50.4157674517953
50.4157672515074
50.4157671620579
50.4157671223884
50.4157671045342
50.4157670962615
50.4157670923103
50.415767090385
50.4157670894431
50.415767088988
50.415767088774
50.4157670886777
50.4157670886374
50.4157670886226
50.415767088619
50.4157670886197
50.4157670886213
50.415767088623
50.4157670886244
50.4157670886255
50.4157670886262
50.4157670886266
50.4157670886267
50.4157670886265
50.4157670886258
50.4157670886246
50.4157670886231
50.4157670886212
50.4157670886196
50.4157670886195
50.4157670886242
50.4157670886408
50.415767088684
50.4157670887852
50.4157670890082
50.4157670894791
50.4157670904441
50.4157670923877
50.4157670962964
50.4157671042946
50.4157671212507
50.4157671588007
50.4157672449207
50.415767444799
50.4157679010209
3501.09506171121
31509.8568385286
31509.8546003962
3501.09490821745
50.4157663389809
50.4157661758832
50.4157661018603
50.4157660692465
50.415766054987
50.4157660486593
50.4157660457631
50.415766044392
50.4157660437272
50.415766043403
50.4157660432466
50.4157660431736
50.4157660431411
50.4157660431278
50.4157660431233
50.4157660431225
50.415766043123
50.4157660431238
50.4157660431246
50.4157660431251
50.4157660431255
50.4157660431257
50.4157660431258
50.4157660431257
50.4157660431255
50.4157660431251
50.4157660431244
50.4157660431236
50.4157660431227
50.4157660431217
50.4157660431212
50.4157660431223
50.4157660431275
50.4157660431419
50.4157660431767
50.415766043254
50.415766043418
50.4157660437538
50.4157660444292
50.4157660457869
50.4157660485735
50.4157660545271
50.4157660678777
50.4157660989795
50.415766172413
50.4157663430038
3501.09491102683
31509.8546958511
31509.8543134238
3501.09490608084
50.4157665225678
50.4157664631702
50.4157664365337
50.4157664249479
50.4157664199521
50.4157664177672
50.4157664167807
50.415766416319
50.4157664160973
50.4157664159902
50.4157664159392
50.4157664159159
50.415766415906
50.4157664159024
50.4157664159014
50.4157664159016
50.4157664159021
50.4157664159025
50.4157664159029
50.4157664159031
50.4157664159032
50.4157664159032
50.4157664159031
50.415766415903
50.4157664159028
50.4157664159024
50.4157664159021
50.4157664159015
50.4157664159009
50.4157664159002
50.4157664158996
50.4157664158993
50.4157664159004
50.4157664159043
50.4157664159151
50.4157664159402
50.4157664159944
50.4157664161067
50.4157664163336
50.4157664167912
50.4157664177351
50.4157664197697
50.4157664243911
50.4157664353249
50.4157664615741
50.4157665235907
3501.09490711695
31509.8543505529
31509.8546698106
3501.09495693337
50.4157673350375
50.4157673139694
50.4157673046273
50.4157673006145
50.4157672989088
50.415767298175
50.4157672978496
50.4157672977003
50.4157672976303
50.4157672975975
50.4157672975826
50.4157672975765
50.4157672975743
50.415767297574
50.4157672975743
50.4157672975748
50.4157672975752
50.4157672975755
50.4157672975757
50.4157672975758
50.4157672975758
50.4157672975757
50.4157672975757
50.4157672975755
50.4157672975753
50.415767297575
50.4157672975747
50.4157672975742
50.4157672975737
50.4157672975731
50.4157672975724
50.4157672975718
50.4157672975713
50.4157672975717
50.415767297574
50.4157672975807
50.4157672975968
50.4157672976316
50.4157672977039
50.4157672978518
50.415767298161
50.4157672988363
50.4157673003934
50.4157673041376
50.4157673132765
50.4157673352243
3501.09495730329
31509.8546838114
31509.8552609022
3501.09502674239
50.4157683694465
50.4157683621639
50.4157683589701
50.415768357616
50.41576835705
50.4157683568122
50.41576835671
50.4157683566653
50.4157683566457
50.4157683566377
50.4157683566348
50.4157683566344
50.4157683566348
50.4157683566356
50.4157683566363
50.4157683566368
50.4157683566373
50.4157683566375
50.4157683566376
50.4157683566377
50.4157683566376
50.4157683566376
50.4157683566374
50.4157683566373
50.4157683566371
50.4157683566368
50.4157683566365
50.4157683566361
50.4157683566356
50.415768356635
50.4157683566344
50.4157683566335
50.4157683566326
50.4157683566317
50.4157683566312
50.4157683566317
50.4157683566349
50.4157683566437
50.415768356664
50.4157683567082
50.4157683568042
50.41576835702
50.4157683575289
50.4157683587767
50.4157683618763
50.415768369443
3501.09502687034
31509.8552660276
31509.8559353385
3501.09510315504
50.4157694801104
50.4157694776594
50.4157694765973
50.4157694761542
50.4157694759736
50.4157694759009
50.4157694758722
50.4157694758614
50.415769475858
50.4157694758578
50.4157694758588
50.4157694758601
50.4157694758613
50.4157694758624
50.4157694758632
50.4157694758638
50.4157694758641
50.4157694758644
50.4157694758645
50.4157694758645
50.4157694758645
50.4157694758644
50.4157694758643
50.4157694758641
50.4157694758639
50.4157694758636
50.4157694758633
50.415769475863
50.4157694758625
50.4157694758619
50.4157694758613
50.4157694758604
50.4157694758593
50.4157694758581
50.4157694758567
50.4157694758553
50.4157694758543
50.4157694758546
50.4157694758581
50.4157694758686
50.415769475895
50.4157694759594
50.4157694761188
50.4157694765214
50.4157694775434
50.4157694800827
3501.09510319792
31509.8559371627
31509.8566386264
3501.09518181115
50.4157706163203
50.4157706155214
50.4157706151807
50.4157706150423
50.4157706149887
50.4157706149696
50.415770614964
50.4157706149637
50.4157706149653
50.4157706149673
50.4157706149693
50.415770614971
50.4157706149724
50.4157706149735
50.4157706149743
50.4157706149749
50.4157706149752
50.4157706149754
50.4157706149755
50.4157706149756
50.4157706149755
50.4157706149754
50.4157706149753
50.4157706149751
50.4157706149749
50.4157706149746
50.4157706149744
50.415770614974
50.4157706149736
50.4157706149731
50.4157706149724
50.4157706149715
50.4157706149705
50.4157706149692
50.4157706149675
50.4157706149656
50.4157706149635
50.4157706149613
50.4157706149597
50.4157706149597
50.4157706149643
50.4157706149804
50.4157706150263
50.4157706151501
50.4157706154749
50.4157706163002
3501.09518182502
31509.8566392588
31509.8573516643
3501.09526121158
50.4157717608861
50.4157717606388
50.4157717605365
50.4157717604972
50.4157717604841
50.4157717604815
50.4157717604828
50.4157717604853
50.4157717604881
50.4157717604906
50.4157717604927
50.4157717604944
50.4157717604958
50.4157717604968
50.4157717604975
50.415771760498
50.4157717604984
50.4157717604986
50.4157717604986
50.4157717604987
50.4157717604986
50.4157717604985
50.4157717604984
50.4157717604982
50.415771760498
50.4157717604978
50.4157717604975
50.4157717604972
50.4157717604967
50.4157717604962
50.4157717604956
50.4157717604948
50.4157717604938
50.4157717604925
50.415771760491
50.415771760489
50.4157717604867
50.415771760484
50.4157717604811
50.4157717604783
50.4157717604765
50.4157717604779
50.4157717604884
50.4157717605226
50.4157717606192
50.4157717608744
3501.09526121583
31509.857351875
31509.8580679227
3501.09534085347
50.415772908124
50.4157729080563
50.4157729080306
50.4157729080225
50.4157729080215
50.4157729080235
50.4157729080264
50.4157729080294
50.4157729080322
50.4157729080346
50.4157729080365
50.415772908038
50.4157729080393
50.4157729080402
50.4157729080408
50.4157729080412
50.4157729080416
50.4157729080417
50.4157729080418
50.4157729080418
50.4157729080417
50.4157729080416
50.4157729080415
50.4157729080413
50.4157729080411
50.4157729080409
50.4157729080406
50.4157729080403
50.4157729080399
50.4157729080394
50.4157729080389
50.4157729080381
50.4157729080372
50.415772908036
50.4157729080346
50.4157729080328
50.4157729080306
50.4157729080281
50.4157729080251
50.4157729080219
50.4157729080187
50.4157729080162
50.4157729080162
50.4157729080228
50.4157729080469
50.4157729081169
3501.09534085458
31509.8580679906
31509.8587852218
3501.09542057203
50.415774056198
50.4157740561873
50.4157740561852
50.4157740561862
50.4157740561884
50.4157740561912
50.415774056194
50.4157740561967
50.4157740561991
50.4157740562012
50.4157740562028
50.4157740562042
50.4157740562052
50.415774056206
50.4157740562066
50.4157740562069
50.4157740562071
50.4157740562073
50.4157740562073
50.4157740562073
50.4157740562072
50.4157740562071
50.415774056207
50.4157740562068
50.4157740562066
50.4157740562064
50.4157740562062
50.4157740562058
50.4157740562055
50.4157740562051
50.4157740562046
50.4157740562039
50.4157740562031
50.4157740562021
50.4157740562008
50.4157740561992
50.4157740561973
50.415774056195
50.4157740561924
50.4157740561895
50.4157740561864
50.4157740561834
50.4157740561809
50.4157740561796
50.4157740561815
50.4157740561933
3501.09542057222
31509.8587852417
31509.8595028504
3501.09550031445
50.4157752045284
50.4157752045349
50.4157752045395
50.4157752045426
50.4157752045451
50.4157752045475
50.4157752045499
50.4157752045521
50.415775204554
50.4157752045557
50.415775204557
50.4157752045581
50.415775204559
50.4157752045596
50.4157752045601
50.4157752045604
50.4157752045605
50.4157752045606
50.4157752045606
50.4157752045606
50.4157752045605
50.4157752045604
50.4157752045602
50.4157752045601
50.4157752045599
50.4157752045597
50.4157752045595
50.4157752045592
50.4157752045589
50.4157752045585
50.415775204558
50.4157752045575
50.4157752045567
50.4157752045558
50.4157752045548
50.4157752045534
50.4157752045519
50.41577520455
50.4157752045478
50.4157752045454
50.4157752045429
50.4157752045403
50.4157752045376
50.4157752045347
50.4157752045304
50.4157752045246
3501.09550031434
31509.8595028557
31509.8602205813
3501.09558006415
50.4157763529358
50.4157763529469
50.4157763529529
50.415776352956
50.415776352958
50.4157763529597
50.4157763529614
50.415776352963
50.4157763529645
50.4157763529657
50.4157763529668
50.4157763529676
50.4157763529683
50.4157763529687
50.4157763529691
50.4157763529693
50.4157763529694
50.4157763529694
50.4157763529694
50.4157763529694
50.4157763529693
50.4157763529691
50.415776352969
50.4157763529688
50.4157763529687
50.4157763529685
50.4157763529683
50.415776352968
50.4157763529677
50.4157763529675
50.415776352967
50.4157763529666
50.415776352966
50.4157763529653
50.4157763529644
50.4157763529633
50.415776352962
50.4157763529605
50.4157763529589
50.4157763529571
50.4157763529552
50.4157763529533
50.4157763529512
50.4157763529485
50.415776352943
50.4157763529324
3501.09558006399
31509.8602205816
31509.8609383433
3501.09565981602
50.4157775013658
50.4157775013777
50.4157775013835
50.4157775013858
50.4157775013871
50.4157775013881
50.4157775013891
50.4157775013901
50.4157775013911
50.415777501392
50.4157775013926
50.4157775013933
50.4157775013937
50.415777501394
50.4157775013943
50.4157775013943
50.4157775013944
50.4157775013944
50.4157775013943
50.4157775013943
50.4157775013942
50.415777501394
50.4157775013939
50.4157775013937
50.4157775013935
50.4157775013934
50.4157775013932
50.415777501393
50.4157775013927
50.4157775013925
50.4157775013922
50.4157775013918
50.4157775013913
50.4157775013908
50.4157775013901
50.4157775013893
50.4157775013883
50.4157775013872
50.4157775013861
50.4157775013848
50.4157775013836
50.4157775013825
50.4157775013813
50.4157775013792
50.415777501374
50.4157775013627
3501.0956598158
31509.860938342
31509.8616561146
3501.09573956852
50.4157786498023
50.4157786498137
50.4157786498188
50.4157786498203
50.4157786498208
50.415778649821
50.4157786498213
50.4157786498218
50.4157786498223
50.4157786498228
50.4157786498231
50.4157786498235
50.4157786498237
50.4157786498239
50.415778649824
50.415778649824
50.415778649824
50.4157786498239
50.4157786498238
50.4157786498237
50.4157786498236
50.4157786498234
50.4157786498233
50.4157786498231
50.415778649823
50.4157786498228
50.4157786498227
50.4157786498225
50.4157786498223
50.4157786498221
50.4157786498219
50.4157786498216
50.4157786498213
50.4157786498209
50.4157786498204
50.4157786498198
50.4157786498192
50.4157786498186
50.4157786498178
50.4157786498172
50.4157786498166
50.4157786498163
50.4157786498158
50.4157786498147
50.4157786498103
50.4157786497994
3501.09573956827
31509.8616561107
31509.8623738887
3501.09581932122
50.4157797982407
50.4157797982512
50.4157797982554
50.415779798256
50.4157797982557
50.4157797982552
50.4157797982549
50.4157797982548
50.4157797982548
50.4157797982549
50.4157797982549
50.415779798255
50.4157797982551
50.4157797982551
50.4157797982551
50.4157797982549
50.4157797982549
50.4157797982547
50.4157797982546
50.4157797982545
50.4157797982543
50.4157797982541
50.415779798254
50.4157797982539
50.4157797982537
50.4157797982536
50.4157797982535
50.4157797982534
50.4157797982532
50.4157797982531
50.4157797982529
50.4157797982528
50.4157797982526
50.4157797982523
50.4157797982521
50.4157797982518
50.4157797982515
50.4157797982512
50.4157797982509
50.4157797982508
50.4157797982509
50.4157797982513
50.4157797982517
50.4157797982514
50.4157797982478
50.4157797982378
3501.095819321
31509.8623738857
31509.8630916636
3501.09589907396
50.4157809466795
50.4157809466889
50.4157809466922
50.4157809466919
50.4157809466907
50.4157809466896
50.4157809466887
50.4157809466881
50.4157809466876
50.4157809466873
50.4157809466871
50.4157809466869
50.4157809466868
50.4157809466866
50.4157809466864
50.4157809466863
50.4157809466861
50.4157809466859
50.4157809466857
50.4157809466856
50.4157809466854
50.4157809466852
50.4157809466851
50.4157809466849
50.4157809466848
50.4157809466847
50.4157809466846
50.4157809466845
50.4157809466844
50.4157809466844
50.4157809466843
50.4157809466842
50.4157809466842
50.4157809466841
50.4157809466841
50.415780946684
50.415780946684
50.4157809466841
50.4157809466843
50.4157809466848
50.4157809466855
50.4157809466865
50.4157809466877
50.4157809466884
50.4157809466857
50.4157809466767
3501.09589907379
31509.8630916617
31509.8638094389
3501.09597882672
50.4157820951183
50.4157820951267
50.4157820951289
50.4157820951278
50.4157820951258
50.415782095124
50.4157820951225
50.4157820951214
50.4157820951205
50.4157820951198
50.4157820951193
50.4157820951189
50.4157820951185
50.4157820951182
50.415782095118
50.4157820951177
50.4157820951174
50.4157820951172
50.415782095117
50.4157820951168
50.4157820951166
50.4157820951164
50.4157820951163
50.4157820951161
50.415782095116
50.415782095116
50.4157820951159
50.4157820951158
50.4157820951158
50.4157820951158
50.4157820951158
50.4157820951159
50.4157820951159
50.415782095116
50.4157820951161