/*--------------------------------*- C++ -*----------------------------------*\
  =========                 |
  \\      /  F ield         | OpenFOAM: The Open Source CFD Toolbox
   \\    /   O peration     | Website:  https://openfoam.org
    \\  /    A nd           | Version:  10
     \\/     M anipulation  |
\*---------------------------------------------------------------------------*/
FoamFile
{
    format      ascii;
    class       volScalarField;
    location    "7.8";
    object      p;
}
// * * * * * * * * * * * * * * * * * * * * * * * * * * * * * * * * * * * * * //

dimensions      [1 -1 -2 0 0 0 0];

internalField   nonuniform List<scalar> 
2500
(
100099.655558319
100099.65555908
100099.655559981
100099.655560807
100099.655561407
100099.655561828
100099.655562107
100099.655562292
100099.655562412
100099.655562489
100099.655562539
100099.655562571
100099.655562591
100099.655562604
100099.655562612
100099.655562617
100099.65556262
100099.655562622
100099.655562622
100099.655562622
100099.655562621
100099.65556262
100099.655562619
100099.655562618
100099.655562617
100099.655562615
100099.655562613
100099.655562612
100099.65556261
100099.655562607
100099.655562605
100099.655562602
100099.655562599
100099.655562594
100099.655562588
100099.65556258
100099.655562569
100099.655562554
100099.65556253
100099.655562496
100099.655562443
100099.655562363
100099.655562241
100099.655562054
100099.655561773
100099.655561348
100099.655560743
100099.655559908
100099.655558995
100099.655558235
100099.653308398
100099.653308977
100099.653309711
100099.653310423
100099.653310954
100099.653311339
100099.653311598
100099.653311771
100099.653311885
100099.653311959
100099.653312007
100099.653312038
100099.653312058
100099.653312071
100099.653312079
100099.653312084
100099.653312087
100099.653312089
100099.65331209
100099.653312089
100099.653312089
100099.653312088
100099.653312087
100099.653312086
100099.653312084
100099.653312083
100099.653312081
100099.653312079
100099.653312077
100099.653312075
100099.653312073
100099.65331207
100099.653312066
100099.653312061
100099.653312056
100099.653312048
100099.653312037
100099.653312021
100099.653311998
100099.653311964
100099.653311914
100099.653311837
100099.653311721
100099.653311544
100099.653311283
100099.653310895
100099.653310359
100099.653309638
100099.653308893
100099.653308316
100099.651051847
100099.651052274
100099.651052766
100099.651053289
100099.65105369
100099.651053993
100099.651054201
100099.651054345
100099.651054441
100099.651054505
100099.651054547
100099.651054575
100099.651054593
100099.651054605
100099.651054613
100099.651054618
100099.651054621
100099.651054622
100099.651054623
100099.651054623
100099.651054622
100099.651054621
100099.65105462
100099.651054619
100099.651054618
100099.651054616
100099.651054614
100099.651054613
100099.651054611
100099.651054609
100099.651054606
100099.651054603
100099.6510546
100099.651054595
100099.651054589
100099.651054581
100099.651054571
100099.651054556
100099.651054535
100099.651054505
100099.65105446
100099.651054393
100099.651054295
100099.651054149
100099.651053938
100099.651053632
100099.651053225
100099.651052694
100099.651052192
100099.651051762
100099.648789177
100099.648789429
100099.648789679
100099.64878999
100099.648790235
100099.648790432
100099.648790573
100099.648790675
100099.648790746
100099.648790795
100099.648790828
100099.648790851
100099.648790867
100099.648790878
100099.648790885
100099.648790889
100099.648790892
100099.648790893
100099.648790894
100099.648790894
100099.648790893
100099.648790893
100099.648790891
100099.64879089
100099.648790889
100099.648790887
100099.648790886
100099.648790884
100099.648790882
100099.64879088
100099.648790877
100099.648790874
100099.648790871
100099.648790866
100099.648790861
100099.648790854
100099.648790844
100099.648790831
100099.648790812
100099.648790787
100099.64879075
100099.648790699
100099.648790626
100099.648790522
100099.648790378
100099.648790177
100099.648789927
100099.648789609
100099.648789352
100099.648789093
100099.646521207
100099.646521292
100099.646521345
100099.646521468
100099.646521574
100099.646521673
100099.646521751
100099.646521812
100099.646521858
100099.646521892
100099.646521916
100099.646521934
100099.646521947
100099.646521955
100099.646521961
100099.646521965
100099.646521968
100099.646521969
100099.646521969
100099.646521969
100099.646521969
100099.646521968
100099.646521967
100099.646521965
100099.646521964
100099.646521962
100099.646521961
100099.646521959
100099.646521957
100099.646521955
100099.646521953
100099.64652195
100099.646521947
100099.646521942
100099.646521937
100099.64652193
100099.646521922
100099.64652191
100099.646521895
100099.646521875
100099.646521848
100099.646521812
100099.646521764
100099.6465217
100099.64652162
100099.646521517
100099.646521407
100099.646521279
100099.646521221
100099.646521128
100099.644248994
100099.644248946
100099.644248863
100099.644248842
100099.64424884
100099.644248861
100099.644248887
100099.644248914
100099.644248938
100099.644248958
100099.644248974
100099.644248987
100099.644248996
100099.644249003
100099.644249008
100099.644249011
100099.644249013
100099.644249014
100099.644249015
100099.644249014
100099.644249014
100099.644249013
100099.644249012
100099.64424901
100099.644249009
100099.644249008
100099.644249006
100099.644249004
100099.644249002
100099.644249
100099.644248998
100099.644248995
100099.644248992
100099.644248988
100099.644248984
100099.644248978
100099.64424897
100099.644248961
100099.644248949
100099.644248934
100099.644248915
100099.644248892
100099.644248866
100099.644248837
100099.644248809
100099.644248785
100099.644248785
100099.644248802
100099.644248883
100099.644248924
100099.641973677
100099.641973544
100099.641973385
100099.641973271
100099.641973197
100099.641973163
100099.64197315
100099.641973151
100099.641973158
100099.641973167
100099.641973176
100099.641973184
100099.64197319
100099.641973195
100099.641973199
100099.641973201
100099.641973202
100099.641973203
100099.641973203
100099.641973203
100099.641973202
100099.641973201
100099.6419732
100099.641973199
100099.641973197
100099.641973196
100099.641973194
100099.641973193
100099.641973191
100099.641973189
100099.641973187
100099.641973184
100099.641973181
100099.641973178
100099.641973174
100099.641973168
100099.641973162
100099.641973155
100099.641973146
100099.641973135
100099.641973124
100099.641973113
100099.641973104
100099.641973101
100099.641973112
100099.641973144
100099.641973217
100099.641973329
100099.641973488
100099.641973616
100099.639696264
100099.639696093
100099.639695906
100099.639695744
100099.63969563
100099.639695561
100099.639695523
100099.639695505
100099.639695499
100099.639695499
100099.639695502
100099.639695506
100099.63969551
100099.639695513
100099.639695515
100099.639695517
100099.639695517
100099.639695518
100099.639695518
100099.639695517
100099.639695516
100099.639695515
100099.639695514
100099.639695513
100099.639695511
100099.63969551
100099.639695508
100099.639695507
100099.639695505
100099.639695503
100099.639695501
100099.639695499
100099.639695496
100099.639695493
100099.639695489
100099.639695485
100099.63969548
100099.639695475
100099.639695469
100099.639695462
100099.639695457
100099.639695455
100099.639695459
100099.639695475
100099.639695512
100099.639695579
100099.639695692
100099.639695854
100099.639696043
100099.639696212
100099.637417539
100099.637417366
100099.637417182
100099.637417005
100099.637416875
100099.637416789
100099.637416735
100099.637416705
100099.63741669
100099.637416683
100099.63741668
100099.637416681
100099.637416682
100099.637416683
100099.637416684
100099.637416685
100099.637416685
100099.637416685
100099.637416684
100099.637416684
100099.637416683
100099.637416682
100099.63741668
100099.637416679
100099.637416678
100099.637416676
100099.637416675
100099.637416673
100099.637416671
100099.63741667
100099.637416668
100099.637416666
100099.637416663
100099.637416661
100099.637416658
100099.637416655
100099.637416651
100099.637416647
100099.637416644
100099.637416641
100099.637416641
100099.637416646
100099.63741666
100099.637416688
100099.63741674
100099.637416826
100099.637416956
100099.637417134
100099.63741732
100099.637417493
100099.635138051
100099.635137898
100099.635137733
100099.635137562
100099.635137431
100099.635137338
100099.635137277
100099.63513724
100099.635137218
100099.635137205
100099.635137199
100099.635137196
100099.635137195
100099.635137194
100099.635137194
100099.635137194
100099.635137194
100099.635137193
100099.635137192
100099.635137191
100099.63513719
100099.635137189
100099.635137188
100099.635137187
100099.635137185
100099.635137184
100099.635137182
100099.635137181
100099.635137179
100099.635137177
100099.635137176
100099.635137174
100099.635137172
100099.63513717
100099.635137168
100099.635137165
100099.635137163
100099.635137161
100099.63513716
100099.63513716
100099.635137165
100099.635137175
100099.635137195
100099.635137232
100099.635137291
100099.635137384
100099.635137515
100099.635137688
100099.635137854
100099.635138009
100099.632858151
100099.632858025
100099.632857887
100099.632857732
100099.63285761
100099.632857518
100099.632857454
100099.632857412
100099.632857386
100099.63285737
100099.63285736
100099.632857354
100099.632857351
100099.632857349
100099.632857348
100099.632857347
100099.632857346
100099.632857345
100099.632857344
100099.632857343
100099.632857341
100099.63285734
100099.632857339
100099.632857337
100099.632857336
100099.632857334
100099.632857333
100099.632857332
100099.63285733
100099.632857329
100099.632857327
100099.632857325
100099.632857324
100099.632857322
100099.63285732
100099.632857319
100099.632857318
100099.632857317
100099.632857318
100099.632857322
100099.632857329
100099.632857344
100099.632857369
100099.632857409
100099.632857472
100099.632857563
100099.632857687
100099.632857843
100099.632857983
100099.632858111
100099.630578046
100099.630577948
100099.630577836
100099.630577702
100099.630577591
100099.630577504
100099.630577441
100099.630577398
100099.630577368
100099.630577349
100099.630577337
100099.630577329
100099.630577324
100099.630577321
100099.630577319
100099.630577317
100099.630577315
100099.630577314
100099.630577312
100099.630577311
100099.63057731
100099.630577308
100099.630577307
100099.630577305
100099.630577304
100099.630577303
100099.630577301
100099.6305773
100099.630577298
100099.630577297
100099.630577296
100099.630577294
100099.630577293
100099.630577292
100099.630577291
100099.63057729
100099.63057729
100099.630577291
100099.630577294
100099.6305773
100099.63057731
100099.630577327
100099.630577355
100099.630577397
100099.630577459
100099.630577546
100099.630577657
100099.630577792
100099.630577907
100099.630578006
100099.628297848
100099.628297774
100099.628297684
100099.628297571
100099.628297474
100099.628297394
100099.628297334
100099.62829729
100099.628297259
100099.628297238
100099.628297224
100099.628297215
100099.628297208
100099.628297204
100099.6282972
100099.628297198
100099.628297196
100099.628297194
100099.628297192
100099.628297191
100099.628297189
100099.628297187
100099.628297186
100099.628297185
100099.628297183
100099.628297182
100099.62829718
100099.628297179
100099.628297178
100099.628297177
100099.628297175
100099.628297174
100099.628297173
100099.628297173
100099.628297172
100099.628297172
100099.628297173
100099.628297176
100099.62829718
100099.628297187
100099.6282972
100099.628297219
100099.628297248
100099.628297291
100099.62829735
100099.62829743
100099.628297527
100099.628297641
100099.628297733
100099.628297808
100099.626017613
100099.626017559
100099.626017487
100099.626017393
100099.626017309
100099.626017237
100099.62601718
100099.626017138
100099.626017107
100099.626017085
100099.626017069
100099.626017058
100099.626017051
100099.626017045
100099.626017041
100099.626017038
100099.626017035
100099.626017033
100099.626017031
100099.626017029
100099.626017027
100099.626017026
100099.626017024
100099.626017023
100099.626017021
100099.62601702
100099.626017019
100099.626017017
100099.626017016
100099.626017015
100099.626017014
100099.626017013
100099.626017013
100099.626017012
100099.626017012
100099.626017013
100099.626017015
100099.626017018
100099.626017024
100099.626017033
100099.626017047
100099.626017067
100099.626017097
100099.626017138
100099.626017194
100099.626017266
100099.62601735
100099.626017445
100099.626017518
100099.626017573
100099.623737368
100099.623737329
100099.623737272
100099.623737194
100099.623737122
100099.623737057
100099.623737005
100099.623736965
100099.623736934
100099.623736911
100099.623736895
100099.623736883
100099.623736874
100099.623736868
100099.623736863
100099.623736859
100099.623736856
100099.623736854
100099.623736851
100099.623736849
100099.623736848
100099.623736846
100099.623736844
100099.623736843
100099.623736841
100099.62373684
100099.623736839
100099.623736837
100099.623736836
100099.623736835
100099.623736835
100099.623736834
100099.623736834
100099.623736834
100099.623736834
100099.623736836
100099.623736838
100099.623736843
100099.623736849
100099.623736859
100099.623736874
100099.623736895
100099.623736924
100099.623736964
100099.623737015
100099.623737079
100099.623737152
100099.62373723
100099.623737287
100099.623737328
100099.621457125
100099.621457095
100099.62145705
100099.621456986
100099.621456925
100099.621456867
100099.62145682
100099.621456781
100099.621456751
100099.621456729
100099.621456712
100099.621456699
100099.62145669
100099.621456683
100099.621456677
100099.621456673
100099.62145667
100099.621456667
100099.621456664
100099.621456662
100099.62145666
100099.621456658
100099.621456657
100099.621456655
100099.621456654
100099.621456652
100099.621456651
100099.62145665
100099.621456649
100099.621456648
100099.621456648
100099.621456647
100099.621456647
100099.621456648
100099.621456649
100099.62145665
100099.621456654
100099.621456659
100099.621456666
100099.621456677
100099.621456692
100099.621456713
100099.621456741
100099.621456779
100099.621456826
100099.621456883
100099.621456944
100099.621457009
100099.621457054
100099.621457084
100099.619176885
100099.619176864
100099.619176827
100099.619176775
100099.619176722
100099.619176672
100099.619176628
100099.619176593
100099.619176564
100099.619176542
100099.619176525
100099.619176512
100099.619176502
100099.619176494
100099.619176488
100099.619176484
100099.61917648
100099.619176477
100099.619176474
100099.619176472
100099.61917647
100099.619176468
100099.619176466
100099.619176465
100099.619176463
100099.619176462
100099.619176461
100099.61917646
100099.619176459
100099.619176458
100099.619176458
100099.619176457
100099.619176458
100099.619176458
100099.61917646
100099.619176462
100099.619176466
100099.619176471
100099.619176479
100099.61917649
100099.619176505
100099.619176526
100099.619176553
100099.619176588
100099.619176631
100099.619176681
100099.619176733
100099.619176786
100099.619176823
100099.619176844
100099.616896651
100099.616896635
100099.616896606
100099.616896562
100099.616896517
100099.616896473
100099.616896434
100099.616896401
100099.616896374
100099.616896353
100099.616896336
100099.616896323
100099.616896312
100099.616896304
100099.616896298
100099.616896293
100099.616896289
100099.616896286
100099.616896283
100099.616896281
100099.616896278
100099.616896277
100099.616896275
100099.616896273
100099.616896272
100099.61689627
100099.616896269
100099.616896268
100099.616896267
100099.616896267
100099.616896266
100099.616896266
100099.616896267
100099.616896268
100099.616896269
100099.616896272
100099.616896276
100099.616896282
100099.61689629
100099.616896302
100099.616896317
100099.616896337
100099.616896363
100099.616896395
100099.616896433
100099.616896477
100099.616896521
100099.616896565
100099.616896594
100099.61689661
100099.614616422
100099.61461641
100099.614616386
100099.61461635
100099.614616312
100099.614616273
100099.614616238
100099.614616208
100099.614616182
100099.614616162
100099.614616145
100099.614616132
100099.614616122
100099.614616114
100099.614616107
100099.614616102
100099.614616098
100099.614616095
100099.614616092
100099.614616089
100099.614616087
100099.614616085
100099.614616083
100099.614616081
100099.61461608
100099.614616079
100099.614616077
100099.614616077
100099.614616076
100099.614616075
100099.614616075
100099.614616075
100099.614616076
100099.614616077
100099.614616079
100099.614616082
100099.614616086
100099.614616092
100099.6146161
100099.614616112
100099.614616127
100099.614616146
100099.61461617
100099.614616199
100099.614616233
100099.614616271
100099.61461631
100099.614616345
100099.614616369
100099.614616381
100099.612336197
100099.612336187
100099.612336168
100099.612336138
100099.612336106
100099.612336072
100099.612336041
100099.612336013
100099.612335989
100099.61233597
100099.612335954
100099.612335941
100099.612335931
100099.612335923
100099.612335916
100099.612335911
100099.612335907
100099.612335903
100099.6123359
100099.612335897
100099.612335895
100099.612335893
100099.612335891
100099.61233589
100099.612335888
100099.612335887
100099.612335886
100099.612335885
100099.612335884
100099.612335884
100099.612335884
100099.612335884
100099.612335884
100099.612335886
100099.612335888
100099.612335891
100099.612335896
100099.612335902
100099.61233591
100099.612335921
100099.612335935
100099.612335953
100099.612335976
100099.612336002
100099.612336033
100099.612336066
100099.612336098
100099.612336128
100099.612336147
100099.612336156
100099.610055975
100099.610055968
100099.610055952
100099.610055927
100099.610055899
100099.61005587
100099.610055842
100099.610055817
100099.610055796
100099.610055777
100099.610055762
100099.61005575
100099.61005574
100099.610055732
100099.610055725
100099.61005572
100099.610055715
100099.610055712
100099.610055708
100099.610055706
100099.610055703
100099.610055701
100099.610055699
100099.610055698
100099.610055696
100099.610055695
100099.610055694
100099.610055693
100099.610055693
100099.610055692
100099.610055692
100099.610055692
100099.610055693
100099.610055695
100099.610055697
100099.6100557
100099.610055705
100099.610055711
100099.610055719
100099.61005573
100099.610055743
100099.61005576
100099.610055781
100099.610055805
100099.610055832
100099.61005586
100099.610055888
100099.610055912
100099.610055928
100099.610055935
100099.607775756
100099.607775751
100099.607775738
100099.607775717
100099.607775693
100099.607775668
100099.607775644
100099.607775621
100099.607775601
100099.607775584
100099.60777557
100099.607775558
100099.607775548
100099.60777554
100099.607775534
100099.607775528
100099.607775524
100099.60777552
100099.607775517
100099.607775514
100099.607775512
100099.60777551
100099.607775508
100099.607775506
100099.607775505
100099.607775504
100099.607775502
100099.607775502
100099.607775501
100099.607775501
100099.607775501
100099.607775501
100099.607775502
100099.607775503
100099.607775506
100099.607775509
100099.607775514
100099.60777552
100099.607775528
100099.607775538
100099.60777555
100099.607775566
100099.607775585
100099.607775606
100099.60777563
100099.607775655
100099.607775678
100099.607775699
100099.607775711
100099.607775717
100099.60549554
100099.605495535
100099.605495525
100099.605495508
100099.605495488
100099.605495466
100099.605495444
100099.605495424
100099.605495406
100099.60549539
100099.605495377
100099.605495366
100099.605495356
100099.605495348
100099.605495342
100099.605495337
100099.605495332
100099.605495329
100099.605495325
100099.605495323
100099.60549532
100099.605495318
100099.605495316
100099.605495315
100099.605495313
100099.605495312
100099.605495311
100099.60549531
100099.60549531
100099.605495309
100099.605495309
100099.60549531
100099.605495311
100099.605495312
100099.605495315
100099.605495318
100099.605495322
100099.605495328
100099.605495336
100099.605495345
100099.605495357
100099.605495372
100099.605495388
100099.605495408
100099.605495428
100099.60549545
100099.605495469
100099.605495486
100099.605495496
100099.605495501
100099.603215325
100099.603215322
100099.603215313
100099.603215299
100099.603215282
100099.603215263
100099.603215245
100099.603215227
100099.60321521
100099.603215196
100099.603215183
100099.603215173
100099.603215164
100099.603215157
100099.60321515
100099.603215145
100099.603215141
100099.603215137
100099.603215134
100099.603215131
100099.603215129
100099.603215127
100099.603215125
100099.603215123
100099.603215122
100099.603215121
100099.60321512
100099.603215119
100099.603215118
100099.603215118
100099.603215118
100099.603215119
100099.603215119
100099.603215121
100099.603215123
100099.603215126
100099.603215131
100099.603215136
100099.603215143
100099.603215152
100099.603215163
100099.603215176
100099.603215192
100099.603215209
100099.603215227
100099.603215245
100099.603215261
100099.603215275
100099.603215283
100099.603215286
100099.600935112
100099.60093511
100099.600935103
100099.600935092
100099.600935077
100099.600935061
100099.600935045
100099.600935029
100099.600935014
100099.600935001
100099.60093499
100099.60093498
100099.600934972
100099.600934964
100099.600934958
100099.600934953
100099.600934949
100099.600934946
100099.600934942
100099.60093494
100099.600934937
100099.600934935
100099.600934934
100099.600934932
100099.600934931
100099.600934929
100099.600934928
100099.600934928
100099.600934927
100099.600934927
100099.600934927
100099.600934927
100099.600934928
100099.60093493
100099.600934932
100099.600934935
100099.600934939
100099.600934944
100099.600934951
100099.600934959
100099.600934969
100099.600934981
100099.600934994
100099.600935009
100099.600935025
100099.60093504
100099.600935054
100099.600935065
100099.600935072
100099.600935074
100099.5986549
100099.598654899
100099.598654894
100099.598654885
100099.598654873
100099.598654859
100099.598654845
100099.598654831
100099.598654818
100099.598654806
100099.598654796
100099.598654787
100099.598654779
100099.598654772
100099.598654767
100099.598654762
100099.598654758
100099.598654754
100099.598654751
100099.598654748
100099.598654746
100099.598654744
100099.598654742
100099.598654741
100099.598654739
100099.598654738
100099.598654737
100099.598654736
100099.598654736
100099.598654736
100099.598654736
100099.598654736
100099.598654737
100099.598654738
100099.59865474
100099.598654743
100099.598654747
100099.598654752
100099.598654758
100099.598654766
100099.598654775
100099.598654785
100099.598654797
100099.59865481
100099.598654823
100099.598654836
100099.598654848
100099.598654857
100099.598654862
100099.598654863
100099.59637469
100099.596374689
100099.596374685
100099.596374678
100099.596374668
100099.596374657
100099.596374645
100099.596374633
100099.596374622
100099.596374611
100099.596374602
100099.596374593
100099.596374586
100099.59637458
100099.596374575
100099.59637457
100099.596374566
100099.596374563
100099.59637456
100099.596374557
100099.596374555
100099.596374553
100099.596374551
100099.59637455
100099.596374548
100099.596374547
100099.596374546
100099.596374545
100099.596374545
100099.596374545
100099.596374545
100099.596374545
100099.596374546
100099.596374547
100099.596374549
100099.596374552
100099.596374555
100099.59637456
100099.596374565
100099.596374572
100099.59637458
100099.596374589
100099.5963746
100099.596374611
100099.596374622
100099.596374633
100099.596374642
100099.596374649
100099.596374652
100099.596374653
100099.59409448
100099.59409448
100099.594094478
100099.594094472
100099.594094465
100099.594094455
100099.594094445
100099.594094435
100099.594094425
100099.594094416
100099.594094407
100099.5940944
100099.594094393
100099.594094387
100099.594094382
100099.594094378
100099.594094374
100099.594094371
100099.594094368
100099.594094366
100099.594094364
100099.594094362
100099.59409436
100099.594094359
100099.594094357
100099.594094356
100099.594094355
100099.594094354
100099.594094354
100099.594094354
100099.594094354
100099.594094354
100099.594094355
100099.594094356
100099.594094357
100099.59409436
100099.594094363
100099.594094367
100099.594094372
100099.594094378
100099.594094385
100099.594094393
100099.594094402
100099.594094411
100099.594094421
100099.594094429
100099.594094437
100099.594094442
100099.594094444
100099.594094444
100099.591814272
100099.591814272
100099.591814271
100099.591814267
100099.591814261
100099.591814254
100099.591814246
100099.591814237
100099.591814228
100099.59181422
100099.591814213
100099.591814206
100099.5918142
100099.591814195
100099.59181419
100099.591814186
100099.591814183
100099.59181418
100099.591814177
100099.591814175
100099.591814173
100099.591814171
100099.591814169
100099.591814168
100099.591814166
100099.591814165
100099.591814164
100099.591814163
100099.591814163
100099.591814163
100099.591814162
100099.591814163
100099.591814163
100099.591814164
100099.591814166
100099.591814168
100099.591814171
100099.591814174
100099.591814179
100099.591814184
100099.59181419
100099.591814197
100099.591814204
100099.591814212
100099.59181422
100099.591814226
100099.591814232
100099.591814235
100099.591814237
100099.591814236
100099.589534064
100099.589534065
100099.589534065
100099.589534063
100099.589534058
100099.589534053
100099.589534046
100099.589534039
100099.589534032
100099.589534025
100099.589534018
100099.589534012
100099.589534007
100099.589534002
100099.589533998
100099.589533994
100099.589533991
100099.589533988
100099.589533986
100099.589533984
100099.589533982
100099.58953398
100099.589533978
100099.589533977
100099.589533975
100099.589533974
100099.589533973
100099.589533973
100099.589533972
100099.589533972
100099.589533972
100099.589533972
100099.589533972
100099.589533973
100099.589533974
100099.589533976
100099.589533979
100099.589533982
100099.589533985
100099.58953399
100099.589533995
100099.589534001
100099.589534007
100099.589534013
100099.589534019
100099.589534024
100099.589534028
100099.58953403
100099.58953403
100099.589534028
100099.587253856
100099.587253859
100099.587253859
100099.587253859
100099.587253856
100099.587253852
100099.587253847
100099.587253841
100099.587253835
100099.587253829
100099.587253824
100099.587253819
100099.587253814
100099.58725381
100099.587253806
100099.587253803
100099.5872538
100099.587253797
100099.587253795
100099.587253793
100099.587253791
100099.587253789
100099.587253787
100099.587253786
100099.587253785
100099.587253784
100099.587253783
100099.587253782
100099.587253781
100099.587253781
100099.587253781
100099.587253781
100099.587253781
100099.587253782
100099.587253783
100099.587253784
100099.587253786
100099.587253789
100099.587253792
100099.587253796
100099.5872538
100099.587253804
100099.587253809
100099.587253814
100099.587253818
100099.587253822
100099.587253824
100099.587253825
100099.587253824
100099.587253821
100099.584973649
100099.584973652
100099.584973654
100099.584973655
100099.584973654
100099.584973651
100099.584973648
100099.584973643
100099.584973639
100099.584973634
100099.584973629
100099.584973625
100099.584973621
100099.584973617
100099.584973614
100099.584973611
100099.584973608
100099.584973606
100099.584973604
100099.584973602
100099.5849736
100099.584973598
100099.584973597
100099.584973595
100099.584973594
100099.584973593
100099.584973592
100099.584973591
100099.58497359
100099.58497359
100099.58497359
100099.58497359
100099.58497359
100099.58497359
100099.584973591
100099.584973592
100099.584973594
100099.584973596
100099.584973598
100099.584973601
100099.584973605
100099.584973608
100099.584973612
100099.584973615
100099.584973618
100099.58497362
100099.584973621
100099.58497362
100099.584973618
100099.584973615
100099.582693443
100099.582693447
100099.58269345
100099.582693452
100099.582693452
100099.582693451
100099.582693449
100099.582693446
100099.582693442
100099.582693438
100099.582693435
100099.582693431
100099.582693428
100099.582693425
100099.582693422
100099.582693419
100099.582693417
100099.582693414
100099.582693412
100099.582693411
100099.582693409
100099.582693407
100099.582693406
100099.582693405
100099.582693403
100099.582693402
100099.582693401
100099.582693401
100099.5826934
100099.582693399
100099.582693399
100099.582693399
100099.582693399
100099.582693399
100099.5826934
100099.5826934
100099.582693402
100099.582693403
100099.582693405
100099.582693407
100099.58269341
100099.582693412
100099.582693415
100099.582693417
100099.582693419
100099.582693419
100099.582693419
100099.582693416
100099.582693413
100099.582693409
100099.580413236
100099.580413242
100099.580413246
100099.580413249
100099.580413251
100099.580413251
100099.58041325
100099.580413248
100099.580413246
100099.580413243
100099.58041324
100099.580413238
100099.580413235
100099.580413232
100099.58041323
100099.580413227
100099.580413225
100099.580413223
100099.580413221
100099.58041322
100099.580413218
100099.580413217
100099.580413215
100099.580413214
100099.580413213
100099.580413212
100099.580413211
100099.58041321
100099.580413209
100099.580413209
100099.580413208
100099.580413208
100099.580413208
100099.580413208
100099.580413208
100099.580413209
100099.580413209
100099.58041321
100099.580413212
100099.580413213
100099.580413215
100099.580413216
100099.580413218
100099.580413219
100099.580413219
100099.580413218
100099.580413216
100099.580413212
100099.580413208
100099.580413203
100099.57813303
100099.578133037
100099.578133042
100099.578133047
100099.57813305
100099.578133052
100099.578133052
100099.578133051
100099.57813305
100099.578133048
100099.578133046
100099.578133044
100099.578133042
100099.57813304
100099.578133038
100099.578133036
100099.578133034
100099.578133032
100099.578133031
100099.578133029
100099.578133028
100099.578133026
100099.578133025
100099.578133024
100099.578133023
100099.578133021
100099.578133021
100099.57813302
100099.578133019
100099.578133018
100099.578133018
100099.578133017
100099.578133017
100099.578133017
100099.578133017
100099.578133017
100099.578133017