/*--------------------------------*- C++ -*----------------------------------*\
  =========                 |
  \\      /  F ield         | OpenFOAM: The Open Source CFD Toolbox
   \\    /   O peration     | Website:  https://openfoam.org
    \\  /    A nd           | Version:  10
     \\/     M anipulation  |
\*---------------------------------------------------------------------------*/
FoamFile
{
    format      ascii;
    class       volScalarField;
    location    "7.8";
    object      p_rgh;
}
// * * * * * * * * * * * * * * * * * * * * * * * * * * * * * * * * * * * * * //

dimensions      [1 -1 -2 0 0 0 0];

internalField   nonuniform List<scalar> 
2500
(
99.7690618377819
99.7690637879423
99.7690683732944
99.7690721068939
99.7690746065491
99.7690761884296
99.7690771517373
99.7690777296812
99.7690780682606
99.7690782629943
99.7690783736034
99.7690784357255
99.7690784705337
99.7690784903389
99.7690785016894
99.7690785082959
99.7690785119048
99.7690785138402
99.7690785147133
99.7690785147861
99.7690785143641
99.7690785135637
99.7690785125305
99.7690785112791
99.7690785098966
99.7690785083978
99.769078506768
99.7690785049926
99.7690785030427
99.7690785008599
99.7690784983279
99.769078495272
99.7690784915176
99.7690784866427
99.7690784800507
99.7690784705774
99.7690784562292
99.7690784333245
99.7690783949074
99.7690783291036
99.7690782147984
99.7690780161793
99.7690776749805
99.7690770963964
99.7690761342237
99.7690745551081
99.7690720503888
99.7690682918037
99.7690636734769
99.7690617889166
99.769360948063
99.7693697427894
99.7693815256207
99.7693906929344
99.7693968239764
99.7694007014215
99.7694030722487
99.769404489969
99.7694053141604
99.7694057800109
99.7694060358772
99.7694061728398
99.7694062447263
99.769406282081
99.7694063014642
99.7694063115341
99.7694063167
99.7694063192466
99.7694063203526
99.7694063205272
99.7694063201343
99.7694063193776
99.7694063183444
99.769406317122
99.7694063157396
99.7694063142408
99.769406312611
99.7694063108356
99.7694063089002
99.7694063066883
99.7694063040981
99.7694063009403
99.7694062968949
99.769406291307
99.7694062830415
99.7694062697265
99.7694062467926
99.7694062053488
99.7694061285874
99.7694059861096
99.7694057244516
99.7694052533334
99.7694044265809
99.7694030115526
99.7694006495585
99.769396782096
99.7693906397326
99.7693814076483
99.7693695344497
99.7693610228744
99.7696791748895
99.7696952104307
99.7697122737591
99.7697250078927
99.7697334062541
99.769738671559
99.7697418727621
99.7697437771858
99.7697448793188
99.7697454989684
99.7697458368202
99.7697460158233
99.7697461083881
99.7697461555072
99.7697461792704
99.7697461912176
99.7697461971547
99.7697462000069
99.7697462012002
99.7697462014185
99.7697462010401
99.7697462002834
99.7697461992648
99.7697461980279
99.76974619666
99.7697461951466
99.7697461935313
99.769746191756
99.7697461898206
99.7697461876087
99.769746185033
99.7697461818461
99.7697461776552
99.7697461717325
99.7697461626376
99.7697461473144
99.7697461197822
99.7697460682684
99.7697459703777
99.7697457852628
99.7697454409208
99.7697448154941
99.7697437107709
99.7697418099706
99.7697386191721
99.7697333618125
99.7697249351768
99.7697120851517
99.7696948387456
99.7696790704358
99.7699797532114
99.7700002968777
99.7700190633914
99.7700324752514
99.7700410770922
99.7700463423389
99.7700494764722
99.7700513071468
99.7700523504755
99.770052929729
99.7700532422459
99.7700534064934
99.7700534909382
99.7700535337353
99.7700535553013
99.7700535661425
99.7700535715267
99.7700535741023
99.7700535751501
99.7700535752811
99.770053574859
99.7700535740732
99.7700535730255
99.7700535718031
99.7700535704353
99.7700535689219
99.7700535672921
99.7700535655458
99.770053563625
99.7700535614422
99.7700535589101
99.7700535558397
99.7700535518088
99.7700535462354
99.7700535377517
99.7700535237091
99.7700534986361
99.7700534518517
99.7700533627212
99.7700531930604
99.7700528746645
99.7700522898958
99.7700512432348
99.7700494136516
99.7700462847279
99.7700410170073
99.7700323654281
99.7700187916198
99.769999745462
99.7699792597123
99.7702361650445
99.770257527678
99.7702750694007
99.7702870878275
99.7702945687779
99.7702990310499
99.7703016278538
99.7703031167039
99.7703039529297
99.7703044123191
99.7703046584647
99.7703047874675
99.770304853897
99.7703048877447
99.7703049049596
99.7703049137344
99.7703049181582
99.7703049202391
99.7703049210395
99.7703049210395
99.7703049205447
99.7703049197153
99.770304918653
99.7703049174015
99.7703049160336
99.7703049145348
99.7703049129195
99.7703049111878
99.7703049092815
99.7703049071715
99.7703049047268
99.7703049018019
99.770304898062
99.7703048930125
99.7703048856492
99.7703048738767
99.770304853475
99.7703048161784
99.7703047459217
99.7703046126117
99.7703043617512
99.7703038977488
99.7703030580742
99.7703015681473
99.7702989714016
99.7702944977354
99.7702869536442
99.7702747479925
99.7702568543755
99.7702352959896
99.7704360475764
99.7704551710049
99.7704696413275
99.7704791597498
99.7704849055444
99.7704882422549
99.7704901395191
99.7704912074696
99.7704917992232
99.7704921215918
99.770492293741
99.7704923841375
99.7704924310674
99.7704924552963
99.7704924678837
99.7704924744176
99.7704924777354
99.7704924792779
99.7704924797872
99.7704924796271
99.7704924790596
99.7704924781719
99.7704924770806
99.7704924758291
99.7704924744321
99.7704924729478
99.7704924713471
99.7704924696445
99.7704924677819
99.7704924657301
99.7704924634018
99.7704924606514
99.7704924572463
99.770492452808
99.7704924466234
99.770492437252
99.7704924217833
99.7704923945566
99.7704923444835
99.7704922507255
99.7704920749966
99.7704917490337
99.7704911542241
99.77049008428
99.7704881843092
99.7704848325957
99.7704790227144
99.7704693191336
99.7704544736334
99.7704349650448
99.7705797292438
99.7705949328229
99.7706056919124
99.7706124920223
99.7706164696283
99.7706187152799
99.7706199613458
99.7706206494913
99.7706210257602
99.7706212293269
99.7706213379861
99.7706213953788
99.7706214255741
99.7706214415084
99.7706214499776
99.7706214544742
99.7706214567588
99.7706214577629
99.7706214579666
99.7706214576465
99.7706214569625
99.7706214560021
99.7706214548816
99.7706214536011
99.7706214522186
99.7706214507343
99.7706214491627
99.7706214474892
99.7706214456848
99.7706214437057
99.7706214414939
99.7706214389618
99.7706214359059
99.7706214320642
99.7706214269856
99.7706214197678
99.7706214085774
99.770621389951
99.7706213570491
99.770621296906
99.7706211854675
99.7706209791504
99.7706206004077
99.7706199102249
99.7706186609721
99.7706164014962
99.7706123690587
99.7706054086011
99.7705943017645
99.7705786321458
99.7706756679108
99.7706866117514
99.7706939217169
99.7706983575772
99.7707008667203
99.770702239126
99.770702979542
99.7707033793995
99.7707035945641
99.7707037100481
99.77070377169
99.7707038045337
99.770703822127
99.7707038316294
99.7707038367953
99.7707038395602
99.7707038409135
99.7707038413791
99.7707038412773
99.7707038407534
99.7707038399531
99.7707038389344
99.7707038377557
99.7707038364606
99.7707038350782
99.7707038336084
99.7707038320514
99.7707038304361
99.7707038286899
99.7707038268127
99.7707038247609
99.7707038224326
99.7707038197259
99.7707038164517
99.7707038123772
99.7707038069493
99.770703799164
99.7707037871296
99.7707037670771
99.7707037318469
99.7707036678621
99.7707035501371
99.7707033329498
99.7707029314624
99.7707021884999
99.7707008058787
99.7706982559466
99.7706936963077
99.7706861003389
99.7706747076445
99.7707355410821
99.7707427674904
99.7707473482151
99.7707500074903
99.77075145462
99.7707522147393
99.7707526093873
99.7707528153696
99.7707529232575
99.7707529801264
99.7707530102489
99.7707530263433
99.7707530350744
99.7707530398475
99.7707530424814
99.7707530438202
99.770753044344
99.7707530443149
99.7707530438784
99.7707530431653
99.7707530422194
99.770753041128
99.7707530398911
99.7707530385815
99.7707530371845
99.7707530357293
99.7707530342159
99.7707530326443
99.7707530309708
99.77075302921
99.7707530273183
99.7707530252083
99.7707530228654
99.7707530201442
99.7707530169282
99.7707530129846
99.7707530078333
99.7707530005864
99.7707529894979
99.770752971177
99.7707529389154
99.7707528800966
99.7707527704915
99.7707525631995
99.7707521669217
99.7707514004287
99.7707499264216
99.770747180839
99.770742387991
99.7707347898977
99.7707706487563
99.7707750667905
99.7707777296309
99.7707791952562
99.770779952858
99.7707803262601
99.7707805071113
99.7707805946411
99.7707806371764
99.7707806580293
99.7707806684193
99.770780673658
99.7707806763938
99.7707806777908
99.770780678431
99.7707806785911
99.7707806783728
99.770780677849
99.7707806771068
99.7707806761609
99.7707806750841
99.7707806738908
99.7707806726103
99.7707806712569
99.77078066986
99.7707806684193
99.7707806669496
99.7707806654216
99.77078066385
99.7707806622057
99.7707806604885
99.7707806586404
99.7707806566323
99.7707806544495
99.7707806520193
99.7707806493127
99.7707806461549
99.7707806423568
99.7707806373364
99.7707806299295
99.7707806175167
99.7707805948303
99.770780550738
99.7707804620877
99.7707802802615
99.7707799034542
99.7707791299763
99.7707776094903
99.7707748029497
99.770770110641
99.7707900759706
99.7707925928698
99.7707940315158
99.7707947667805
99.770795116041
99.7707952663914
99.7707953262143
99.7707953470963
99.770795352626
99.7707953526551
99.7707953511708
99.7707953495701
99.7707953482459
99.770795347169
99.7707953462523
99.7707953453792
99.7707953444769
99.7707953435165
99.7707953424397
99.7707953412901
99.7707953400532
99.770795338758
99.7707953374047
99.7707953360368
99.7707953346253
99.7707953332138
99.7707953317731
99.7707953303034
99.7707953288336
99.7707953273202
99.7707953257777
99.770795324177
99.7707953225326
99.7707953208592
99.7707953191421
99.7707953174831
99.7707953159406
99.7707953146601
99.7707953137287
99.770795313234
99.7707953127247
99.7707953109348
99.7707953039207
99.770795281991
99.7707952215424
99.7707950696204
99.7707947118906
99.7707939445972
99.7707924162096
99.7707897150831
99.7708002558356
99.7708015968237
99.7708023159794
99.770802640458
99.7708027677872
99.7708028002817
99.7708027972258
99.7708027834888
99.770802769388
99.7708027578919
99.7708027494809
99.7708027435147
99.770802739411
99.7708027364715
99.7708027342887
99.770802732528
99.770802731
99.7708027295885
99.770802728206
99.7708027268382
99.7708027254557
99.7708027240587
99.7708027226472
99.7708027212357
99.7708027198241
99.7708027184126
99.7708027170156
99.7708027156186
99.7708027142362
99.7708027128683
99.7708027115004
99.7708027101762
99.7708027088811
99.7708027076587
99.7708027066255
99.7708027058834
99.7708027056506
99.7708027062617
99.7708027081826
99.7708027120534
99.7708027185436
99.7708027283225
99.7708027409681
99.7708027536864
99.7708027562039
99.7708027230692
99.7708025917091
99.770802250001
99.7708014787058
99.7708000235725
99.7708053173556
99.7708059855941
99.7708063124446
99.7708064242033
99.7708064413164
99.7708064174803
99.7708063849714
99.7708063548489
99.7708063310711
99.7708063134778
99.7708063010068
99.770806292232
99.7708062861348
99.7708062817546
99.7708062785241
99.7708062759921
99.7708062738966
99.7708062720776
99.7708062703896
99.7708062688034
99.7708062672609
99.7708062657621
99.7708062642923
99.7708062628371
99.7708062614111
99.7708062600141
99.7708062586607
99.7708062573365
99.7708062560705
99.7708062548336
99.7708062536549
99.770806252578
99.7708062516176
99.7708062508609
99.7708062504244
99.7708062505117
99.7708062513557
99.7708062534657
99.7708062574093
99.7708062641323
99.7708062747261
99.7708062906459
99.770806312983
99.7708063420869
99.7708063740429
99.770806397617
99.7708063788014
99.7708062585298
99.7708059033321
99.7708051691588
99.7708077045827
99.7708080141019
99.7708081420278
99.770808153422
99.7708081218007
99.7708080747689
99.7708080306184
99.7708079939184
99.7708079658914
99.7708079451986
99.7708079303848
99.770807919791
99.770807912224
99.7708079067379
99.7708079026197
99.7708078994037
99.7708078968135
99.7708078946016
99.7708078926225
99.7708078908327
99.7708078891446
99.7708078875439
99.7708078860014
99.7708078845317
99.770807883091
99.7708078817232
99.7708078804135
99.7708078791475
99.7708078779688
99.7708078768628
99.7708078758733
99.7708078750438
99.7708078744035
99.7708078740834
99.7708078741853
99.7708078749711
99.770807876761
99.7708078800206
99.770807885463
99.7708078940632
99.770807907058
99.7708079261065
99.7708079527365
99.7708079884178
99.7708080319571
99.7708080787852
99.7708081097808
99.770808094574
99.7708079521253
99.7708076068084
99.7708087668143
99.7708088974468
99.770808932095
99.7708089018997
99.770808852787
99.7708087991487
99.7708087522769
99.7708087139472
99.7708086845523
99.7708086625062
99.7708086463681
99.770808634581
99.7708086259663
99.7708086195635
99.7708086147322
99.7708086109487
99.7708086078783
99.7708086053171
99.7708086030907
99.7708086010971
99.7708085992781
99.7708085975755
99.7708085959748
99.7708085944614
99.7708085930353
99.770808591682
99.7708085904014
99.7708085892082
99.7708085881168
99.7708085871564
99.7708085863414
99.7708085857303
99.7708085853956
99.7708085854538
99.770808586065
99.7708085874765
99.7708085900376
99.7708085942286
99.7708086007624
99.7708086106286
99.7708086249768
99.7708086454368
99.7708086734638
99.7708087107458
99.7708087569772
99.7708088103682
99.7708088592626
99.7708088879008
99.7708088462532
99.7708086971979
99.7708092048706
99.7708092521498
99.7708092472167
99.7708092038229
99.770809151858
99.7708090992091
99.7708090537344
99.7708090162341
99.7708089869848
99.7708089645748
99.7708089477819
99.7708089352382
99.7708089258667
99.7708089187945
99.7708089133666
99.7708089091029
99.7708089056541
99.7708089027728
99.7708089003136
99.7708088981453
99.7708088961954
99.7708088944055
99.7708088927611
99.7708088912186
99.770808889778
99.7708088884392
99.7708088872023
99.7708088860818
99.7708088850777
99.7708088842337
99.7708088835789
99.770808883186
99.7708088831278
99.7708088835352
99.7708088845684
99.7708088865038
99.7708088896907
99.7708088946092
99.7708089019579
99.7708089126099
99.7708089276421
99.770808948495
99.7708089764346
99.7708090128872
99.7708090576634
99.7708091100067
99.7708091618551
99.7708092046669
99.770809206384
99.7708091500535
99.7708093630063
99.7708093744004
99.7708093552792
99.770809311216
99.7708092624816
99.7708092139364
99.7708091715904
99.7708091360691
99.7708091077802
99.7708090856177
99.7708090686356
99.7708090556844
99.7708090458182
99.7708090382366
99.7708090323431
99.7708090276865
99.7708090239175
99.7708090207889
99.7708090181259
99.7708090157976
99.7708090137312
99.7708090118686
99.770809010166
99.7708090085944
99.7708090071537
99.7708090058441
99.7708090046362
99.770809003574
99.7708090026572
99.7708090019296
99.7708090014203
99.7708090012165
99.7708090014057
99.7708090021042
99.7708090035012
99.7708090058732
99.7708090095548
99.7708090150263
99.7708090229135
99.770809034002
99.7708090492815
99.7708090699307
99.770809096939
99.7708091314125
99.770809173031
99.7708092211833
99.7708092697721
99.7708093136462
99.7708093313122
99.7708093156107
99.7708094020782
99.7708093996189
99.7708093774418
99.7708093374531
99.7708092940447
99.7708092505636
99.7708092119719
99.7708091789391
99.7708091520326
99.7708091305103
99.7708091136737
99.770809100577
99.7708090904198
99.7708090825035
99.7708090762753
99.7708090713131
99.7708090672822
99.7708090639353
99.7708090610977
99.7708090586384
99.7708090564702
99.7708090545493
99.7708090528031
99.7708090512169
99.7708090497617
99.7708090484666
99.7708090473025
99.7708090462838
99.7708090454544
99.7708090448286
99.7708090444648
99.7708090444212
99.7708090448141
99.7708090457745
99.7708090474771
99.7708090501837
99.7708090542437
99.7708090600936
99.7708090683009
99.7708090795932
99.7708090947708
99.7708091148088
99.7708091404347
99.7708091724635
99.7708092102985
99.7708092533139
99.7708092965186
99.7708093364054
99.7708093578985
99.7708093583205
99.7708093935798
99.7708093868278
99.7708093659603
99.7708093313704
99.7708092935791
99.7708092552057
99.7708092204557
99.7708091900568
99.7708091647946
99.7708091441746
99.7708091277309
99.7708091147069
99.7708091044478
99.7708090963424
99.7708090898959
99.7708090847154
99.7708090804808
99.7708090769593
99.7708090739907
99.7708090714295
99.7708090691885
99.7708090671949
99.7708090654196
99.7708090638189
99.7708090623782
99.7708090610831
99.7708090599481
99.7708090590022
99.770809058231
99.7708090576925
99.7708090574451
99.770809057547
99.7708090581145
99.7708090592787
99.7708090612141
99.7708090641827
99.7708090685046
99.7708090745873
99.7708090829401
99.7708090941742
99.7708091090171
99.7708091281675
99.7708091521927
99.770809181573
99.7708092155663
99.7708092534012
99.7708092909161
99.770809325375
99.7708093458932
99.7708093516558
99.7708093678812
99.7708093606343
99.7708093424444
99.7708093131514
99.7708092806279
99.7708092470275
99.7708092159446
99.7708091882378
99.7708091647364
99.7708091451932
99.7708091293171
99.770809116555
99.7708091063541
99.7708090981905
99.7708090916276
99.7708090863016
99.770809081936
99.770809078298
99.770809075213
99.7708090725646
99.7708090702654
99.7708090682427
99.7708090664237
99.770809064823
99.7708090633823
99.7708090621018
99.7708090610104
99.7708090600936
99.7708090593951
99.7708090589294
99.7708090587839
99.7708090590022
99.7708090597152
99.7708090610249
99.7708090631495
99.7708090662927
99.7708090707747
99.7708090769447
99.7708090852684
99.7708090962988
99.7708091105742
99.7708091287059
99.7708091509849
99.7708091776876
99.7708092079702
99.7708092410176
99.7708092731918
99.7708093023102
99.7708093202673
99.7708093269757
99.7708093371475
99.7708093307301
99.7708093153778
99.7708092908288
99.770809262991
99.7708092337271
99.770809206093
99.7708091809909
99.770809159294
99.7708091409586
99.7708091258246
99.7708091134555
99.7708091034292
99.7708090952947
99.7708090887027
99.7708090833185
99.7708090788656
99.7708090751548
99.7708090720116
99.770809069305
99.7708090669621
99.7708090648957
99.7708090630767
99.7708090614615
99.7708090600208
99.7708090587694
99.7708090576925
99.7708090568194
99.7708090561791
99.7708090557862
99.7708090556989
99.7708090560191
99.770809056834
99.7708090582601
99.7708090605011
99.7708090637461
99.7708090682863
99.7708090744563
99.7708090826491
99.7708090933156
99.7708091068926
99.7708091238455
99.7708091443346
99.7708091684181
99.7708091952518
99.7708092239482
99.770809251364
99.7708092757093
99.7708092908433
99.770809296926
99.7708093059482
99.770809300695
99.770809287962
99.7708092674875
99.7708092437679
99.7708092183748
99.770809193913
99.7708091713139
99.7708091514505
99.7708091343811
99.770809120062
99.7708091082022
99.7708090984815
99.7708090905071
99.7708090839733
99.7708090785745
99.7708090741071
99.7708090703672
99.7708090671804
99.7708090644446
99.7708090620727
99.7708090599917
99.7708090581582
99.7708090565429
99.7708090551168
99.7708090538799
99.7708090528322
99.7708090519882
99.770809051377
99.7708090510423
99.7708090510278
99.7708090514061
99.7708090522938
99.7708090537926
99.7708090560918
99.770809059366
99.7708090638916
99.7708090699452
99.770809077876
99.7708090880624
99.770809100839
99.7708091165405
99.7708091352251
99.7708091568347
99.7708091804816
99.7708092052635
99.7708092285611
99.7708092487592
99.7708092612884
99.7708092663088
99.7708092757821
99.7708092716784
99.7708092612302
99.7708092442481
99.7708092240791
99.7708092021639
99.7708091806271
99.7708091604145
99.770809142341
99.7708091265813
99.770809113179
99.7708091019158
99.7708090925735
99.7708090848319
99.770809078429
99.770809073103
99.7708090686647
99.7708090649103
99.7708090617234
99.7708090589877
99.7708090566011
99.7708090545202
99.7708090527012
99.7708090510714
99.7708090496599
99.7708090484521
99.7708090474189
99.770809046604
99.7708090460364
99.7708090457309
99.77080904576
99.770809046182
99.7708090470987
99.7708090486267
99.7708090509259
99.7708090541855
99.7708090586093
99.7708090644737
99.7708090720553
99.7708090816595
99.770809093563
99.7708091079694
99.7708091248787
99.7708091441164
99.7708091648383
99.7708091861423
99.7708092058456
99.7708092225366
99.7708092327666
99.7708092366665
99.7708092470566
99.7708092439716
99.7708092355024
99.7708092215034
99.7708092044486
99.7708091856039
99.7708091667591
99.770809148773
99.7708091324457
99.7708091180102
99.7708091055683
99.7708090949891
99.7708090860979
99.7708090786618
99.7708090724482
99.7708090672531
99.770809062873
99.7708090591768
99.7708090560191
99.7708090532833
99.7708090509113
99.770809048845
99.770809047026
99.7708090454253
99.7708090440137
99.7708090428205
99.7708090418164
99.770809041016
99.7708090404631
99.7708090401866
99.7708090402302
99.7708090406813
99.7708090415981
99.7708090431261
99.7708090453962
99.7708090485539
99.7708090528176
99.7708090584056
99.7708090655651
99.7708090745291
99.7708090855012
99.7708090986125
99.7708091137902
99.7708091307868
99.7708091488166
99.7708091670502
99.7708091836103
99.7708091973036
99.7708092055691
99.7708092084795
99.7708092196699
99.7708092174871
99.7708092107496
99.7708091993118
99.7708091850072
99.7708091689128
99.7708091525274
99.7708091366658
99.7708091220265
99.7708091089153
99.7708090974629
99.7708090876113
99.7708090792439
99.7708090721571
99.7708090661908
99.7708090611704
99.7708090569067
99.7708090532833
99.7708090501692
99.7708090474771
99.7708090451342
99.7708090430824
99.770809041278
99.7708090396918
99.7708090383094
99.7708090371161
99.7708090361266
99.7708090353553
99.7708090348169
99.7708090345404
99.7708090345986
99.7708090350352
99.770809035952
99.7708090374363
99.7708090396045
99.7708090426459
99.7708090466913
99.7708090519445
99.7708090586093
99.7708090668893
99.7708090768865
99.7708090887027
99.7708091021923
99.770809117108
99.7708091326931
99.7708091481472
99.770809161957
99.7708091730892
99.770809179623
99.7708091816312
99.770809193491
99.7708091921522
99.770809186899
99.7708091777167
99.7708091658424
99.7708091522363
99.7708091381064
99.7708091242239
99.7708091112145
99.7708090993983
99.77080908895
99.7708090798697
99.7708090720553
99.7708090653905
99.7708090597152
99.7708090548986
99.7708090507804
99.7708090472588
99.770809044232
99.7708090415981
99.7708090392989
99.7708090372762
99.7708090355009
99.7708090339438
99.7708090325614
99.7708090313972
99.7708090304222
99.770809029651
99.7708090291126
99.7708090288361
99.7708090288797
99.7708090293017
99.7708090301603
99.7708090315718
99.7708090336382
99.7708090364904
99.7708090402739
99.7708090451488
99.7708090512897
99.7708090588276
99.7708090678498
99.7708090783708
99.7708090902597
99.7708091031964
99.7708091165259
99.7708091295062
99.7708091409004
99.7708091497625
99.770809154812
99.7708091560344
99.7708091683307
99.7708091677632
99.7708091638633
99.7708091566747
99.7708091469831
99.770809135618
99.7708091235691
99.7708091115346
99.7708091000968
99.7708090895612
99.770809080117
99.7708090718079
99.7708090646047
99.7708090583765
99.7708090530359
99.7708090484666
99.7708090445376
99.770809041147
99.7708090382075
99.7708090356609
99.7708090334054
99.7708090314263
99.7708090296946
99.7708090281521
99.7708090268134
99.7708090256492
99.7708090246742
99.7708090239175
99.7708090233646
99.7708090230881
99.7708090231026
99.770809023481
99.7708090242813
99.7708090255765
99.7708090274973
99.7708090301312
99.7708090336091
99.7708090380765
99.7708090436354
99.7708090504166
99.7708090584492
99.7708090677188
99.7708090780652
99.7708090891683
99.7708091004315
99.7708091111563
99.7708091203822
99.7708091272507
99.7708091309614
99.7708091314416
99.770809144029
99.7708091441891
99.7708091415261
99.7708091361565
99.7708091284148
99.7708091191162
99.770809108988
99.7708090986853
99.7708090887318
99.7708090794476
99.7708090710075
99.7708090634987
99.7708090569067
99.7708090511587
99.7708090461965
99.7708090418892
99.7708090381639
99.7708090349333
99.7708090321248
99.770809029651
99.7708090274682
99.7708090255474
99.7708090238448
99.7708090223314
99.7708090210217
99.7708090198721
99.7708090189117
99.7708090181404
99.7708090175875
99.7708090172819
99.7708090172673
99.7708090175729
99.7708090182714
99.7708090194647
99.7708090211963
99.7708090235828
99.7708090267261
99.7708090307424
99.7708090357191
99.7708090417145
99.7708090487722
99.7708090568194
99.7708090656961
99.770809075053
99.7708090844244
99.7708090930973
99.7708091003879
99.7708091054519
99.7708091079403
99.7708091077075
99.7708091204549
99.7708091213426
99.7708091198147
99.770809116133
99.7708091101813
99.7708091027744
99.7708090944216
99.7708090857632
99.7708090772212
99.7708090691449
99.7708090616943
99.7708090549859
99.7708090490341
99.7708090437809
99.770809039197
99.7708090351953
99.7708090317028
99.7708090286469
99.7708090259694
99.7708090236119
99.7708090215165
99.7708090196538
99.7708090179949
99.7708090165252
99.7708090152155
99.770809014095
99.7708090131346
99.7708090123633
99.7708090117958
99.7708090114465
99.7708090113738
99.7708090116066
99.7708090122032
99.7708090132364
99.7708090147644
99.770809016889
99.7708090196684
99.770809023219
99.7708090275701
99.7708090327942
99.7708090388915
99.7708090457454
99.7708090532251
99.7708090609667
99.7708090685628
99.7708090753586
99.7708090808592
99.7708090842643
99.7708090856468
99.7708090847009
99.7708090974484
99.7708090990782
99.7708090986562
99.7708090965461
99.7708090922679
99.7708090866072
99.7708090799133
99.7708090727829
99.7708090655942
99.7708090586675
99.7708090522065
99.7708090462984
99.7708090409724
99.770809036243
99.7708090320666
99.770809028385
99.7708090251399
99.7708090222877
99.7708090197557
99.7708090175147
99.7708090155065
99.7708090137166
99.7708090121014
99.7708090106753
99.7708090093947
99.7708090082742
99.7708090073138
99.770809006528
99.7708090059314
99.770809005553
99.7708090054221
99.770809005553
99.7708090060332
99.7708090068918
99.770809008216
99.770809010035
99.7708090124361
99.770809015492
99.7708090192318
99.7708090236847
99.7708090288215
99.7708090345404
99.7708090406813
99.770809046895
99.7708090528467
99.7708090579108
99.7708090617671
99.7708090636152
99.7708090639208
99.7708090622764
99.7708090749366
99.7708090773522
99.7708090779925
99.7708090773958
99.7708090746601
99.7708090706292
99.7708090654778
99.7708090598026
99.7708090538945
99.7708090481028
99.7708090425731
99.7708090374508
99.7708090327942
99.7708090285741
99.7708090248198
99.7708090214728
99.7708090184897
99.7708090158412
99.7708090134693
99.7708090113592
99.7708090094529
99.7708090077358
99.7708090061788
99.7708090047818
99.7708090035303
99.7708090024244
99.7708090014785
99.7708090006781
99.7708090000524
99.7708089996158
99.7708089993976
99.7708089994412
99.7708089997759
99.7708090004598
99.7708090015367
99.7708090030501
99.7708090050728
99.7708090076194
99.7708090107335
99.7708090144297
99.7708090186352
99.7708090232481
99.7708090281085
99.7708090328961
99.7708090373199
99.7708090407687
99.770809043097
99.7708090434462
99.7708090427041
99.770809040303
99.7708090527885
99.7708090560482
99.7708090577507
99.7708090586384
99.7708090574015
99.7708090549131
99.7708090512169
99.770809046895
99.7708090422093
99.7708090374945
99.7708090328961
99.770809028545
99.7708090245142
99.7708090208325
99.7708090175001
99.7708090145024
99.7708090117958
99.7708090093656
99.7708090071683
99.7708090051747
99.7708090033848
99.7708090017404
99.7708090002561
99.7708089989028
99.7708089976804
99.770808996589
99.7708089956286
99.7708089948137
99.7708089941443
99.7708089936496
99.7708089933585
99.7708089932858
99.7708089934749
99.7708089939697
99.7708089947846
99.7708089959924
99.7708089976077
99.7708089996449
99.7708090021479
99.7708090050728
99.7708090083761
99.7708090119413
99.7708090155938
99.7708090190281
99.7708090220112
99.7708090239321
99.7708090247907
99.7708090236993
99.7708090219094
99.7708090186934
99.7708090309461
99.7708090351516
99.7708090379601
99.7708090402884
99.7708090404776
99.7708090394444
99.7708090371161
99.7708090340748
99.7708090305678
99.770809026857
99.7708090231608
99.7708090195665
99.7708090161759
99.7708090130182
99.7708090101223
99.7708090074739
99.7708090050437
99.7708090028464
99.7708090008236
99.7708089989901
99.7708089972875
99.770808995745
99.7708089943189
99.7708089930093
99.770808991816
99.7708089907246
99.7708089897642
99.7708089889202
99.7708089882217
99.7708089876687
99.7708089872904
99.7708089871012
99.7708089871303
99.7708089874213
99.7708089879743
99.7708089888474
99.7708089900552
99.7708089915977
99.7708089934749
99.7708089956723
99.7708089981024
99.7708090006345
99.770809003152
99.7708090053202
99.77080900695
99.7708090074302
99.7708090068918
99.7708090043452
99.770809001493
99.7708089973748
99.770809009322
99.7708090145898
99.7708090185333
99.7708090223459
99.770809023903
99.7708090242668
99.770809023219
99.7708090214001
99.7708090189699
99.7708090162632
99.7708090134111
99.7708090105589
99.770809007794
99.7708090051601
99.7708090026863
99.7708090003871
99.770808998248
99.7708089962834
99.7708089944499
99.7708089927473
99.7708089911757
99.7708089897205
99.7708089883527
99.7708089870866
99.7708089859225
99.7708089848602
99.7708089838852
99.7708089830121
99.77080898227
99.7708089816442
99.770808981164
99.7708089808584
99.7708089807275
99.7708089808002
99.7708089810912
99.7708089816442
99.77080898243
99.7708089834778
99.7708089847438
99.7708089862281
99.7708089878142
99.7708089893858
99.7708089908119
99.7708089917869
99.7708089921362
99.7708089912485
99.7708089893567
99.7708089853695
99.7708089813968
99.7708089762455
99.7708089878724
99.7708089943917
99.7708089995285
99.77080900484
99.7708090077213
99.7708090094093
99.7708090095693
99.7708090089
99.770809007503
99.7708090057276
99.7708090037049
99.7708090015658
99.7708089994121
99.7708089972875
99.7708089952503
99.7708089933003
99.7708089914522
99.7708089897205
99.7708089880762
99.7708089865337
99.7708089850785
99.770808983696
99.7708089824009
99.7708089811931
99.7708089800435
99.7708089789958
99.7708089780062
99.7708089771186
99.7708089763182
99.7708089756197
99.7708089750522
99.7708089746011
99.7708089743101
99.7708089741645
99.7708089741936
99.7708089744119
99.7708089747903