/*--------------------------------*- C++ -*----------------------------------*\
  =========                 |
  \\      /  F ield         | OpenFOAM: The Open Source CFD Toolbox
   \\    /   O peration     | Website:  https://openfoam.org
    \\  /    A nd           | Version:  10
     \\/     M anipulation  |
\*---------------------------------------------------------------------------*/
FoamFile
{
    format      ascii;
    class       surfaceScalarField;
    location    "7.8";
    object      phi;
}
// * * * * * * * * * * * * * * * * * * * * * * * * * * * * * * * * * * * * * //

dimensions      [1 0 -1 0 0 0 0];

internalField   nonuniform List<scalar> 
4900
(
-5.38224752339752e-12
5.40553836486108e-12
-7.95631624004442e-12
2.60995585208305e-12
-7.63532411276185e-12
-2.82702180721845e-13
-5.98990782221212e-12
-1.60788337604216e-12
-4.26821621147999e-12
-1.6848069575272e-12
-2.91146000701216e-12
-1.32012889194909e-12
-1.95603892863881e-12
-9.18921516924939e-13
-1.31245868606955e-12
-6.07239701716779e-13
-8.860365941193e-13
-3.90318860181527e-13
-6.03739670933813e-13
-2.46506477607118e-13
-4.15246030189734e-13
-1.53069162997518e-13
-2.87352305017973e-13
-9.28659305058004e-14
-1.98623309001571e-13
-5.41077868097412e-14
-1.35425619606297e-13
-2.89782957786586e-14
-8.91468729263687e-14
-1.24461355877868e-14
-5.43441779819913e-14
-1.33659314205489e-15
-2.75438230158899e-14
6.32374646066951e-15
-6.4750123112199e-15
1.17381038757808e-14
1.03939279155304e-14
1.56466499985746e-14
2.41262947285006e-14
1.85167413982736e-14
3.54908282195748e-14
2.06433206614822e-14
4.50819620944924e-14
2.21985273257334e-14
5.33660659581585e-14
2.33108790928407e-14
6.07316820773258e-14
2.40563600612572e-14
6.753228934842e-14
2.44698469265302e-14
7.40909590149757e-14
2.45802673889226e-14
8.07393895295716e-14
2.43782798196375e-14
8.78176845976152e-14
2.38542103759457e-14
9.57143195864117e-14
2.29591027500743e-14
1.0489711369769e-13
2.16131233611001e-14
1.1594013376356e-13
1.97097332536049e-14
1.29612677727009e-13
1.70542458306683e-14
1.46961142411793e-13
1.33699505368761e-14
1.69511837934742e-13
8.17823484417899e-15
1.99541487709788e-13
7.29139534823559e-16
2.40544488572901e-13
-1.0194468949657e-14
2.97982559698535e-13
-2.65615908898249e-14
3.80472943288482e-13
-5.15295519561804e-14
5.01622944460395e-13
-9.00950493949414e-14
6.82860751606523e-13
-1.50087015609931e-13
9.57366021027667e-13
-2.43268459594567e-13
1.37553631666934e-12
-3.86867643601232e-13
2.01103862100671e-12
-6.04157646323432e-13
2.96074079913377e-12
-9.18316184042121e-13
4.31943830002925e-12
-1.32718981629097e-12
6.05875900004487e-12
-1.70744170229816e-12
7.73665017391486e-12
-1.64518552861768e-12
8.06829925988427e-12
-2.97549127144887e-13
5.43564474396872e-12
2.66713304192464e-12
5.45972053600776e-12
-8.53969673490984e-12
1.39778035036038e-11
-1.40270511427617e-11
8.14407280347564e-12
-1.40092090342627e-11
-2.51459452778008e-13
-1.13529856779712e-11
-4.21600069157612e-12
-8.31233297104964e-12
-4.67822306162081e-12
-5.82334595298463e-12
-3.7623222351483e-12
-4.01896946202172e-12
-2.6767897951113e-12
-2.77634039562657e-12
-1.80366085702602e-12
-1.93410529913229e-12
-1.1867145297222e-12
-1.36270548077689e-12
-7.72503849141216e-13
-9.70216300063535e-13
-5.0063909379976e-13
-6.95290143610943e-13
-3.23380904335488e-13
-4.97923090065753e-13
-2.07574650252729e-13
-3.52396371290027e-13
-1.31106510813893e-13
-2.42212365968714e-13
-7.97114439864627e-14
-1.56737158328976e-13
-4.43464470637163e-14
-8.9011892404308e-14
-1.93590349463794e-14
-3.43589066865772e-14
-1.26426493892505e-15
1.04665605622448e-14
1.21121429296362e-14
4.77927506832132e-14
2.21527211115708e-14
7.93685984952844e-14
2.97316210691552e-14
1.06555148454088e-13
3.54075948668588e-14
1.30476446073077e-13
3.9545828587514e-14
1.52077492168925e-13
4.2398873489061e-14
1.7222084826883e-13
4.40842506362291e-14
1.91719851817142e-13
4.46783149194528e-14
2.11380717957174e-13
4.41774263180388e-14
2.32061012630329e-13
4.25193731161981e-14
2.54703056138073e-13
3.95697906801668e-14
2.80403040025701e-13
3.50940382285194e-14
3.10515479619658e-13
2.87280290068343e-14
3.46760091831054e-13
1.99113976006181e-14
3.91441960369922e-13
7.78324340694405e-15
4.4778614993869e-13
-9.05404073054636e-15
5.20479500310834e-13
-3.28110177150029e-14
6.16509605302646e-13
-6.70048618043593e-14
7.46535582393723e-13
-1.1727823399925e-13
9.27071571105176e-13
-1.92647040277658e-13
1.1838384722334e-12
-3.07321644986814e-13
1.55686938482399e-12
-4.8345345171204e-13
2.10757132668382e-12
-7.54191747602962e-13
2.92821138293878e-12
-1.1676358848345e-12
4.14978907566186e-12
-1.78578985217984e-12
5.93803856155538e-12
-2.6665252320929e-12
8.42608066590274e-12
-3.77495059029656e-12
1.1495856116005e-11
-4.73630800965003e-12
1.42106392696459e-11
-4.31779882730518e-12
1.42511274595371e-11
-2.94224772344498e-13
8.66354425181104e-12
8.29740914008155e-12
1.41511733324518e-11
-7.24905446630656e-12
2.12618960221978e-11
-1.33232725232405e-11
1.42667970765471e-11
-1.39251226524845e-11
4.00514486069002e-13
-1.1728945365258e-11
-6.36326595266302e-12
-8.90479814409204e-12
-7.45456257929107e-12
-6.47374440403087e-12
-6.1462549067118e-12
-4.64070206019352e-12
-4.46319870685096e-12
-3.33372305581688e-12
-3.06445255471419e-12
-2.41621401360403e-12
-2.05849915062926e-12
-1.77055973208497e-12
-1.37292370356258e-12
-1.30981901853176e-12
-9.1665390762665e-13
-9.74406353761658e-13
-6.14582196646765e-13
-7.24504542537976e-13
-4.13772827008903e-13
-5.33826502183511e-13
-2.78573580039513e-13
-3.85010015528555e-13
-1.85785539059457e-13
-2.66477190316149e-13
-1.20580039282491e-13
-1.70369071275094e-13
-7.35800818731009e-14
-9.12097774934305e-14
-3.89189822229938e-14
-2.50719076416113e-14
-1.28724880627586e-14
3.09651475056997e-14
6.94779527947172e-15
7.91636165276547e-14
2.20743142832013e-14
1.21322597763482e-13
3.35276272818961e-14
1.58957376563055e-13
4.1956368890292e-14
1.93373255011015e-13
4.78209035399532e-14
2.25765202621258e-13
5.13496771743933e-14
2.57275162530237e-13
5.26690295201877e-14
2.89027909199065e-13
5.17920241363189e-14
3.22215305496686e-13
4.85885900747199e-14
3.58131727242801e-13
4.28203117900995e-14
3.982642416829e-13
3.4059630640634e-14
4.44404928744835e-13
2.16371092593905e-14
4.98775099300138e-13
4.56410504182868e-15
5.64264401162737e-13
-1.86882016929309e-14
6.44780665757715e-13
-5.05341011543408e-14
7.45799535544723e-13
-9.47507443899777e-14
8.75192182875838e-13
-1.57251086063618e-13
1.0445530222681e-12
-2.47401724241518e-13
1.27127016794801e-12
-3.80014946472644e-13
1.58165772725144e-12
-5.78232802636794e-13
2.01561033910227e-12
-8.77795396076929e-13
2.63289382173382e-12
-1.33173131496187e-12
3.52099804508306e-12
-2.01587240068552e-12
4.79923111002082e-12
-3.02403331805038e-12
6.60888229296413e-12
-4.43602028589357e-12
9.03269227521803e-12
-6.15825460515101e-12
1.18820666379846e-11
-7.5443765975059e-12
1.41391368991724e-11
-6.5320571352455e-12
1.35738433749357e-11
3.15514555217987e-13
7.40883652104746e-12
1.45051292077068e-11
2.15873423482953e-11
-4.38032692945339e-12
2.56785035201945e-11
-9.29608471566227e-12
1.92317630038035e-11
-1.04524289015869e-11
1.6071867589174e-12
-9.37334074597523e-12
-7.39348684265279e-12
-7.54838747410192e-12
-9.2319997483336e-12
-5.8107802871675e-12
-7.83726908631044e-12
-4.40118618791561e-12
-5.82687549604078e-12
-3.33097455340336e-12
-4.08932153998593e-12
-2.53440197721461e-12
-2.81026772579706e-12
-1.94191776216686e-12
-1.92113057821331e-12
-1.49667943038189e-12
-1.31813251424721e-12
-1.15701331729456e-12
-9.10996770537022e-13
-8.93388767633686e-13
-6.34637838051818e-13
-6.85178983462225e-13
-4.44496857766299e-13
-5.1797760802408e-13
-3.11149734031165e-13
-3.81630997554965e-13
-2.15513062016537e-13
-2.68873439901467e-13
-1.45318749112747e-13
-1.74398607448361e-13
-9.27416428124928e-14
-9.42348173042498e-14
-5.27204428964193e-14
-2.53177988297846e-14
-2.19615269055246e-14
3.47850258881606e-14
1.69992348592166e-15
8.80713343597555e-14
1.97181129164309e-14
1.36239632619931e-13
3.30401874744331e-14
1.80792612698237e-13
4.23214256316483e-14
2.23104274328866e-13
4.79179368879442e-14
2.64493506384274e-13
5.00093902351859e-14
3.06273139185492e-13
4.86150224281212e-14
3.49811074858214e-13
4.35469981806094e-14
3.96594811290847e-13
3.44476340560541e-14
4.4829851191733e-13
2.07012830356933e-14
5.06897345287229e-13
1.33788745554759e-15
5.74797334734499e-13
-2.50617076580911e-14
6.55029412188658e-13
-6.06499557442844e-14
7.5153672408591e-13
-1.0875305852154e-13
8.69613659221001e-13
-1.74497655364616e-13
1.01651286757538e-12
-2.65754504741378e-13
1.20238636315231e-12
-3.94790014854378e-13
1.44164605800306e-12
-5.80678524206743e-13
1.75495540670308e-12
-8.52817647777513e-13
2.17193259141501e-12
-1.25590691947604e-12
2.73447875916961e-12
-1.85526417917868e-12
3.49998538534835e-12
-2.74221597166423e-12
4.53944018482199e-12
-4.02416603028157e-12
5.92237120981782e-12
-5.77941260672054e-12
7.64627686065934e-12
-7.84220634248978e-12
9.48529753401827e-12
-9.34254611377838e-12
1.06139265012433e-11
-7.61818246084576e-12
9.503998551379e-12
1.46961715450423e-12
4.5323628104634e-12
1.95189293721701e-11
2.61464441227972e-11
-1.51526855680829e-12
2.72301527395161e-11
-4.59822482897223e-12
2.23632633015429e-11
-6.09132299540766e-12
3.14927138211229e-12
-6.17259095822155e-12
-7.26488818451175e-12
-5.50548695014287e-12
-9.85330674944839e-12
-4.62586072672476e-12
-8.67220528166837e-12
-3.77670156843812e-12
-6.63216368000465e-12
-3.04664782473484e-12
-4.7761698658902e-12
-2.44684694768387e-12
-3.3674486688422e-12
-1.96302932479262e-12
-2.36286901226419e-12
-1.57442619578551e-12
-1.66516741846035e-12
-1.26152955408357e-12
-1.18281411150133e-12
-1.00800937849661e-12
-8.47546571586476e-13
-8.00890100413546e-13
-6.11452141157748e-13
-6.30089704457536e-13
-4.42209770424677e-13
-4.8784409661943e-13
-3.18418401292363e-13
-3.68162578194833e-13
-2.26033651921138e-13
-2.66405659996416e-13
-1.55879524269381e-13
-1.78920180633674e-13
-1.01906630194872e-13
-1.02778009492177e-13
-6.00977571582183e-14
-3.558583336133e-14
-2.77518294271312e-14
2.46765324146433e-14
-3.04334959168365e-15
7.97453361995963e-14
1.52587296709655e-14
1.31188180772331e-13
2.79767888051902e-14
1.80442641921303e-13
3.55969204787255e-14
2.28895379467539e-13
3.83475591176289e-14
2.77934060831936e-13
3.6246212922492e-14
3.28986561469136e-13
2.90639638021383e-14
3.83597628801431e-13
1.6324895847862e-14
4.43492981777157e-13
-2.76786345093254e-15
5.106580039486e-13
-2.94443118619941e-14
5.87463492582108e-13
-6.55089859837267e-14
6.76804075621195e-13
-1.13636072962105e-13
7.82295926470454e-13
-1.77873291356328e-13
9.08555009618085e-13
-2.64346345514501e-13
1.06153493242183e-12
-3.82261669061351e-13
1.24897005880933e-12
-5.4566755244361e-13
1.48091629546802e-12
-7.75960425268097e-13
1.77035987941006e-12
-1.10547066576965e-12
2.13366259497088e-12
-1.58227750946788e-12
2.59049079532794e-12
-2.27500714543922e-12
3.1619486870602e-12
-3.27642658937638e-12
3.86316013680425e-12
-4.68795458351828e-12
4.68529388389485e-12
-6.56388999926131e-12
5.54578062380114e-12
-8.66461064859326e-12
6.21356418659033e-12
-9.97133601496154e-12
6.16378351266629e-12
-7.52772206238466e-12
4.71840234884911e-12
2.95729765849397e-12
1.62183750606529e-12
2.26557129624331e-11
2.77933275615815e-11
5.87818580293381e-13
2.66781666796869e-11
-7.59326882329976e-13
2.37574587007291e-11
-2.34185306102418e-12
4.77882697733017e-12
-3.27996000897041e-12
-6.28157408533065e-12
-3.55351408221357e-12
-9.53622710348203e-12
-3.40910721001226e-12
-8.77433470791677e-12
-3.06462374470715e-12
-6.93529520936025e-12
-2.65718700791903e-12
-5.14298449284534e-12
-2.25606358979636e-12
-3.72856310013081e-12
-1.89149285385353e-12
-2.68797356315408e-12
-1.57311664896971e-12
-1.94457457006782e-12
-1.30077408384497e-12
-1.41665406340383e-12
-1.07008316952418e-12
-1.0401762421676e-12
-8.75281378823766e-13
-7.68613575139438e-13
-7.10574313334908e-13
-5.69674710807038e-13
-5.70725018842476e-13
-4.2140279019365e-13
-4.51219079549356e-13
-3.09027585748471e-13
-3.48278013970264e-13
-2.22637157519556e-13
-2.58745123706618e-13
-1.55559547868349e-13
-1.79988952548488e-13
-1.03252008874221e-13
-1.09778962800783e-13
-6.26119805545669e-14
-4.61954341768221e-14
-3.15050817385066e-14
1.24483038349768e-14
-8.4659578341726e-15
6.76901943482995e-14
7.47467932555243e-15
1.20955036175955e-13
1.69151168412001e-14
1.73618931110228e-13
2.01315091868152e-14
2.27057055922653e-13
1.71413253499754e-14
2.82687738335565e-13
7.67116402597493e-15
3.42020590835383e-13
-8.8469549640435e-15
4.0673348252095e-13
-3.33788952623563e-14
4.78708326180233e-13
-6.73583581482344e-14
5.60151846991353e-13
-1.12914335807026e-13
6.53659707680268e-13
-1.73110023896327e-13
7.62350569160583e-13
-2.52514765311706e-13
8.89955995706065e-13
-3.57866123648646e-13
1.04093662976049e-12
-4.99098964699888e-13
1.22047494706714e-12
-6.90983005348839e-13
1.43430298537961e-12
-9.55464635650025e-13
1.68814001566104e-12
-1.32486251045365e-12
1.98632036475792e-12
-1.84587340355473e-12
2.32900587628851e-12
-2.58295426549633e-12
2.70657163954955e-12
-3.61908939820678e-12
3.08893201830197e-12
-5.03523217808067e-12
3.4076511558295e-12
-6.84729517279584e-12
3.52900093426031e-12
-8.75023636136673e-12
3.24392480266595e-12
-9.64965613661955e-12
2.31830116164749e-12
-6.56384564699657e-12
7.77021199983203e-13
4.53841269477237e-12
-5.45489361304731e-13
2.40159277825841e-11
2.72711237239203e-11
1.77587239365695e-12
2.49363562874996e-11
1.68472910199944e-12
2.38924528267657e-11
2.10703709144667e-13
6.29602792299504e-12
-1.18094251259139e-12
-4.84863630702659e-12
-2.040794160657e-12
-8.63680687541482e-12
-2.39489316292076e-12
-8.38197764942542e-12
-2.41785452141976e-12
-6.87504870326287e-12
-2.26138844299639e-12
-5.26291575506613e-12
-2.02563601696283e-12
-3.92839198451493e-12
-1.76786256143531e-12
-2.9103491944862e-12
-1.51787633099752e-12
-2.15963338025039e-12
-1.28919722412239e-12
-1.61084205314864e-12
-1.08641189981013e-12
-1.20888146346026e-12
-9.09483258167012e-13
-9.11853664897085e-13
-7.56230895448607e-13
-6.89610260859104e-13
-6.23683352036599e-13
-5.20986133481362e-13
-5.08747543538522e-13
-3.91330592010234e-13
-4.08534015123053e-13
-2.90527446259553e-13
-3.2045355918205e-13
-2.11602807418983e-13
-2.42234976003293e-13
-1.49696238047613e-13
-1.718867057345e-13
-1.01424710356266e-13
-1.07648338388182e-13
-6.44226799776488e-14
-4.79403587094476e-14
-3.7045160917184e-14
8.68972682504588e-15
-1.81959922979494e-14
6.36067961677103e-14
-7.19079354887227e-15
1.18127917637016e-13
-3.70580957636062e-15
1.7357003002665e-13
-7.72523980341456e-15
2.31286924609026e-13
-1.95602164530764e-14
2.92707885232766e-13
-3.98543870875044e-14
3.59396246955899e-13
-6.97089367340597e-14
4.33076642238601e-13
-1.10719496394312e-13
5.15711733076946e-13
-1.65251766093004e-13
6.09535306948443e-13
-2.36640794866456e-13
7.17094024912254e-13
-3.29767211277608e-13
8.41217719163667e-13
-4.51650765086999e-13
9.84928395479024e-13
-6.1241816701159e-13
1.15112185426327e-12
-8.26712204570865e-13
1.34188545093424e-12
-1.11567069636597e-12
1.55716099962973e-12
-1.50946777991139e-12
1.7922293949509e-12
-2.0501406261306e-12
2.03339800148546e-12
-2.7931760577076e-12
2.25056792640711e-12
-3.80515703337904e-12
2.38602167727216e-12
-5.13941776791065e-12
2.339308245663e-12
-6.76910811866976e-12
1.96009491457264e-12
-8.33918767073457e-12
1.07998341975309e-12
-8.73690626434585e-12
-3.14494892307309e-13
-5.13517811647353e-12
-1.75702213975648e-12
6.01656092917614e-12
-1.79509685482817e-12
2.40875915446143e-11
2.54962804310131e-11
2.22589095789895e-12
2.27420168796681e-11
2.84381861422302e-12
2.33142732664659e-11
1.59552153471173e-12
7.58303503361777e-12
9.36877251464886e-14
-3.30998776558935e-12
-1.02332547903155e-12
-7.48469135883132e-12
-1.64353022755771e-12
-7.72799000094735e-12
-1.89064458883484e-12
-6.59513126866699e-12
-1.90427303601111e-12
-5.21722918792523e-12
-1.79129022226658e-12
-4.00990967125132e-12
-1.61966091549585e-12
-3.05101247488092e-12
-1.42933879081051e-12
-2.31943066490188e-12
-1.24178182987461e-12
-1.76827942870531e-12
-1.06737269386972e-12
-1.35355222784461e-12
-9.10121360247067e-13
-1.03973025031929e-12
-7.70611804666307e-13
-8.00092105803239e-13
-6.47734252450392e-13
-6.15166325931038e-13
-5.39652797115674e-13
-4.71025920171342e-13
-4.44304325137658e-13
-3.57781518159912e-13
-3.59670432454532e-13
-2.68412590136838e-13
-2.83855201131798e-13
-1.97935730648183e-13
-2.15136563390547e-13
-1.42793189950411e-13
-1.51938806058306e-13
-1.0047407168092e-13
-9.28218462827355e-14
-6.91973288504618e-14
-3.64436222664701e-14
-4.77697097862746e-14
1.84698240845145e-14
-3.54394682224236e-14
7.31528076988746e-14
-3.18444713958623e-14
1.28842885233991e-13
-3.6972750057773e-14
1.86799877766514e-13
-5.115911966343e-14
2.48348244693334e-13
-7.51125554329472e-14
3.14902015291851e-13
-1.10024886092494e-13
3.88009272838146e-13
-1.57625406698801e-13
4.69352530188735e-13
-2.20414653880917e-13
5.60789709930378e-13
-3.01902655541993e-13
6.64292533129537e-13
-4.07082593616354e-13
7.81852515294257e-13
-5.42994195653433e-13
9.15231435889412e-13
-7.19533361592783e-13
1.06544703500406e-12
-9.5059840851703e-13
1.23179729218383e-12
-1.25560693066226e-12
1.41013359690185e-12
-1.6612873248011e-12
1.58987688857109e-12
-2.20324747982371e-12
1.74926967406805e-12
-2.9257993911422e-12
1.84783966257465e-12
-3.87681726149972e-12
1.81678824547139e-12
-5.08131208357867e-12
1.54826275550166e-12
-6.47335706748447e-12
9.02860867912463e-13
-7.66625538293572e-12
-2.38725449850162e-13
-7.56707840642624e-12
-1.75254714935471e-12
-3.59169809910432e-12
-2.97787389990469e-12
7.27288117632044e-12
-2.28976152712194e-12
2.34285194043189e-11
2.32238235837552e-11
2.20568832004999e-12
2.05640403403336e-11
3.10087632758806e-12
2.24530277532166e-11
2.12033524429885e-12
8.59602699830582e-12
7.29808712482194e-13
-1.88877385649288e-12
-4.11968584063754e-13
-6.31380574989847e-12
-1.12466730539118e-12
-6.98742414272454e-12
-1.48268310267888e-12
-6.21017466339891e-12
-1.59858464300829e-12
-5.07508440543361e-12
-1.56995263985037e-12
-4.01284701126653e-12
-1.46381231816619e-12
-3.13191479490216e-12
-1.32269962169801e-12
-2.43570689498537e-12
-1.1714576027736e-12
-1.89505493301603e-12
-1.02363023960231e-12
-1.47726211264583e-12
-8.85805051289818e-13
-1.1537727183003e-12
-7.60544748481637e-13
-9.01890708427213e-13
-6.48186384086488e-13
-7.04370247441061e-13
-5.47936225610756e-13
-5.48412459826551e-13
-4.58472613462265e-13
-4.2465506390207e-13
-3.7830255477058e-13
-3.26246387084782e-13
-3.05901073185551e-13
-2.48235112513748e-13
-2.39812674704819e-13
-1.86992089247874e-13
-1.7866259575605e-13
-1.39926434670418e-13
-1.211604084515e-13
-1.05172295086801e-13
-6.60840923907981e-14
-8.14696431378921e-14
-1.22591781763804e-14
-6.80190413171608e-14
4.14542244846309e-14
-6.44258027605472e-14
9.61961351133065e-14
-7.06777397556635e-14
1.53121453447499e-13
-8.71265509203615e-14
2.13442547580082e-13
-1.1453896475438e-13
2.78416859418781e-13
-1.54153214453741e-13
3.49394931921943e-13
-2.07791639070115e-13
4.27786390186356e-13
-2.78013984741027e-13
5.15078328417666e-13
-3.68407773961039e-13
6.12713981396024e-13
-4.83921419456403e-13
7.21939794254639e-13
-6.31397826009972e-13
8.43470463587537e-13
-8.20200663206108e-13
9.76863590542766e-13
-1.06307008572812e-12
1.11943360949953e-12
-1.37718137620577e-12
1.26442990583333e-12
-1.78519827011664e-12
1.39806712950824e-12
-2.31569535252584e-12
1.4951313282754e-12
-3.0015610083018e-12
1.51246772892079e-12
-3.87273649145986e-12
1.38207293966183e-12
-4.92938986168873e-12
1.00516508484029e-12
-6.07479946700409e-12
2.68933362721846e-13
-6.90814433114896e-12
-8.97634347462203e-13
-6.3780372025435e-12
-2.30306976339468e-12
-2.1625395070044e-12
-3.26556323880464e-12
8.26022481564946e-12
-2.2931018221803e-12
2.247920479182e-11
2.09439997000878e-11
1.94633845036438e-12
1.86410477713639e-11
2.85410058954368e-12
2.15729487629787e-11
2.13082698303312e-12
9.34538500164365e-12
9.56848012027761e-13
-6.90300376684756e-13
-7.97774752171079e-14
-5.25409582841608e-12
-7.784551844921e-13
-6.26678642671296e-12
-1.17200021780019e-12
-5.7955141314442e-12
-1.34156960602327e-12
-4.88503354261826e-12
-1.36761892292452e-12
-3.96681136228632e-12
-1.30964856837981e-12
-3.17031061366821e-12
-1.20802579269447e-12
-2.51811727198305e-12
-1.0878907118422e-12
-1.99631332380974e-12
-9.64043317172002e-13
-1.58255219800564e-12
-8.44507720720389e-13
-1.25505955350386e-12
-7.33160853506771e-13
-9.95286733899599e-13
-6.31417182557971e-13
-7.88449560993304e-13
-5.39324900844014e-13
-6.23113099080134e-13
-4.56198221840901e-13
-4.90646947001448e-13
-3.81002366729995e-13
-3.84546355345046e-13
-3.12569796412305e-13
-2.99991745547608e-13
-2.49695972077526e-13
-2.33390304656695e-13
-1.91205466881569e-13
-1.82121931690549e-13
-1.359567052674e-13
-1.44286686556527e-13
-8.28525933912122e-14
-1.18581263391042e-13
-3.08321665929236e-14
-1.04170114647719e-13
2.11513408848081e-14
-1.00645850647348e-13
7.41380599641925e-14
-1.07990070340353e-13
1.29178377703855e-13
-1.26566370498758e-13
1.87355547514831e-13
-1.57174699771482e-13
2.49777947939553e-13
-2.01079246430901e-13
3.17596548253025e-13
-2.60145745900379e-13
3.919702839685e-13
-3.36941574791762e-13
4.74028223057478e-13
-4.35024701334915e-13
5.64747461163446e-13
-5.5919139543969e-13
6.64742722464463e-13
-7.15921996476634e-13
7.73882949030003e-13
-9.13833554906187e-13
8.90649698296806e-13
-1.16427990131755e-12
1.01103692591655e-12
-1.48194774770145e-12
1.12684588505898e-12
-1.88530964855067e-12
1.22302898594606e-12
-2.39609372958452e-12
1.27405768036611e-12
-3.03671349159529e-12
1.23894560690554e-12
-3.8216607297143e-12
1.05725882771372e-12
-4.73166439566283e-12
6.47441057115845e-13
-5.64886966818502e-12
-7.18690749588105e-14
-6.17256282715469e-12
-1.13053104788298e-12
-5.30262555411979e-12
-2.31770331677745e-12
-9.5755215586661e-13
-3.0242041574034e-12
8.98554501349629e-12
-2.03952601836181e-12
2.15118443468188e-11
1.89141462857976e-11
1.60366417324883e-12
1.70554390944575e-11
2.3999695373795e-12
2.0797023509985e-11
1.8952403754463e-12
9.86876784327497e-12
9.61591753459619e-13
2.60713926998764e-13
8.28502857950395e-14
-4.35913189303306e-12
-5.48333147293648e-13
-5.62032292425495e-12
-9.33669756866194e-13
-5.39561634945159e-12
-1.12541860723053e-12
-4.67926586544992e-12
-1.18504499276217e-12
-3.89359171868789e-12
-1.16183285487155e-12
-3.18028580478166e-12
-1.09150881945286e-12
-2.57552283999614e-12
-9.97675806727993e-13
-2.07752669301642e-12
-8.95109332581549e-13
-1.67278757942694e-12
-7.9244574335661e-13
-1.34567463131594e-12
-6.94360201228319e-13
-1.08159775685712e-12
-6.0303094463613e-13
-8.68270081123725e-13
-5.19147895975516e-13
-6.9574089196548e-13
-4.42558834477854e-13
-5.56220526203494e-13
-3.72631123160686e-13
-4.43682038516896e-13
-3.08513783965467e-13
-3.53522957349891e-13
-2.49240024952739e-13
-2.82265356006639e-13
-1.93823298332444e-13
-2.27309085946411e-13
-1.41273161522023e-13
-1.86756986711496e-13
-9.06159985125495e-14
-1.59291226693894e-13
-4.08961231308015e-14
-1.44057174442757e-13
8.83112178140364e-15
-1.40638788143567e-13
5.95004438163713e-14
-1.49007825102376e-13
1.12059787651292e-13
-1.6954219028948e-13
1.67463963792523e-13
-2.03049783770942e-13
2.26677908805667e-13
-2.50805679320642e-13
2.9065717332351e-13
-3.14666291679266e-13
3.60325646799075e-13
-3.97168521232412e-13
4.36494759862663e-13
-5.01757356651294e-13
5.19738895335502e-13
-6.3299222006601e-13
6.1014525477668e-13
-7.96866186580158e-13
7.06934609751956e-13
-1.00113040199012e-12
8.07828285934562e-13
-1.25563895865851e-12
9.08030712271795e-13
-1.57256281500005e-12
9.98729227088543e-13
-1.96635895629804e-12
1.06491057181497e-12
-2.45255840942965e-12
1.08261043712218e-12
-3.04463036217317e-12
1.01555829545623e-12
-3.7447710007765e-12
8.1369085335226e-13
-4.5199271212961e-12
4.14717264650973e-13
-5.24000720721119e-12
-2.33554459002659e-13
-5.5143232011248e-12
-1.12997238141355e-12
-4.39589084376712e-12
-2.07255512496589e-12
-3.79223340744517e-15
-2.55939328665889e-12
9.48432424620127e-12
-1.6911101396665e-12
2.06543541254726e-11
1.72284567874159e-11
1.26507326029138e-12
1.580319398042e-11
1.91489256131586e-12
2.01606595161259e-11
1.58066042662054e-12
1.02149049814152e-11
8.6665338345439e-13
9.85640182539495e-13
1.52061437489934e-13
-3.63450277383386e-12
-3.92229386958198e-13
-5.06674945813721e-12
-7.47299163739247e-13
-5.03185226801619e-12
-9.42218418598567e-13
-4.47610277363865e-12
-1.02100471913631e-12
-3.80691861225232e-12
-1.02248214177161e-12
-3.17122662186661e-12
-9.76798048912518e-13
-2.61390346983524e-12
-9.05067657790991e-13
-2.14222058421331e-12
-8.21250591594972e-13
-1.7498297775476e-12
-7.34025245702551e-13
-1.42638357904586e-12
-6.48453727461089e-13
-1.16090642705983e-12
-5.67219939129517e-13
-9.43488021449067e-13
-4.91496040203205e-13
-7.65685187576185e-13
-4.21546831433381e-13
-6.20614568808721e-13
-3.57087040337389e-13
-5.02795831197e-13
-2.97538518011125e-13
-4.07918374993321e-13
-2.42159909203226e-13
-3.32666136219623e-13
-1.90137491006337e-13
-2.74512035816119e-13
-1.40623940114252e-13
-2.31591461497205e-13
-9.27703156148058e-14
-2.02588981490485e-13
-4.57271606192535e-14
-1.86651283069614e-13
1.34602346514977e-15
-1.83354138351057e-13
4.92860495683846e-14
-1.92666513786147e-13
9.89316316384203e-14
-2.14969131302124e-13
1.51114498567372e-13
-2.51064051716288e-13
2.066572656499e-13
-3.02217480401664e-13
2.66340415929566e-13
-3.70244978414826e-13
3.30868486491701e-13
-4.57607436688846e-13
4.00775152641156e-13
-5.67579732745757e-13
4.76289294685106e-13
-7.04415912796867e-13
5.57082198952323e-13
-8.73552844651935e-13
6.41898481648532e-13
-1.08181430435321e-12
7.27956700750392e-13
-1.33752982418348e-12
8.10083839229645e-13
-1.65047987835641e-12
8.79438662469672e-13
-2.03145531678172e-12
9.21844876576716e-13
-2.49065717994662e-12
9.15881231085524e-13
-3.03431675392676e-12
8.30955017651847e-13
-3.65547053922198e-12
6.27676951818608e-13
-4.31227953542204e-12
2.61528556242233e-13
-4.86951716933102e-12
-2.96170556868022e-13
-4.95227117244273e-12
-1.02362154253546e-12
-3.66385866744618e-12
-1.7415615043872e-12
7.19373821030859e-13
-2.05589125915693e-12
9.80450052234662e-12
-1.341253441168e-12
1.99446716780734e-11
1.58891483003735e-11
9.70532406350149e-13
1.48400305035758e-11
1.48275651320531e-12
1.96548286887635e-11
1.2732122766349e-12
1.0429442519765e-11
7.40782107388358e-13
1.52245581819629e-12
1.74140047255502e-13
-3.06404607121441e-12
-2.82424495444303e-13
-4.60690716640326e-12
-5.98221721137223e-13
-4.71321667713597e-12
-7.85468197481678e-13
-4.28636464319711e-12
-8.73736252178072e-13
-3.71644251922984e-12
-8.92383484096185e-13
-3.15062239497613e-12
-8.65962834548988e-13
-2.6386044739942e-12
-8.12722528557174e-13
-2.19397580498335e-12
-7.45351086919431e-13
-1.8159507876257e-12
-6.72178318699197e-13
-1.49854124598884e-12
-5.98357441493957e-13
-1.23394479419207e-12
-5.26855291164094e-13
-1.01443572159464e-12
-4.59182525168989e-13
-8.33022797030527e-13
-3.95921045833245e-13
-6.83748862929252e-13
-3.37075032586003e-13
-5.61708617067187e-13
-2.82299950552574e-13
-4.62939740292515e-13
-2.31054505261911e-13
-3.84320583335155e-13
-1.82686917096983e-13
-3.23435366427877e-13
-1.3648700719115e-13
-2.78476731807961e-13
-9.17252163058036e-14
-2.48150332669309e-13
-4.7659345214267e-14
-2.31614656195514e-13
-3.55029393149387e-15
-2.28444624742408e-13
4.13407485353668e-14
-2.38608678597293e-13
8.77454981086495e-14
-2.62482098486976e-13
1.36378406579227e-13
-3.00850531941867e-13
1.87922963980865e-13
-3.54949446268095e-13
2.42999269107891e-13
-4.26532064347718e-13
3.02111106852363e-13
-5.17943590793745e-13
3.65560909950147e-13
-6.32257642982967e-13
4.33292349021729e-13
-7.73370155212872e-13
5.04658840303992e-13
-9.46128534804267e-13
5.78069782241653e-13
-1.15641243156061e-12
6.50472654915439e-13
-1.41109158119443e-12
7.16607931047486e-13
-1.71774046470905e-12
7.68008999666634e-13
-2.08394735118956e-12
7.91795030301413e-13
-2.5155027907876e-12
7.69481521760555e-13
-3.01304443291122e-12
6.76181327955888e-13
-3.56321783526166e-12
4.82177648057248e-13
-4.11936617109181e-12
1.57693012549325e-13
-4.54619882129164e-12
-3.08810296146371e-13
-4.48699403370278e-12
-8.83783343580452e-13
-3.09001281186761e-12
-1.41554117467883e-12
1.25042460654627e-12
-1.6033760728603e-12
9.99198420043015e-12
-1.03404963380546e-12
1.93744597553223e-11
1.48533634709533e-11
7.3202969082791e-13
1.41105861880847e-11
1.13088571737564e-12
1.92564142550491e-11
1.00805079908003e-12
1.05516699024936e-11
6.17376055340636e-13
1.91223992224468e-12
1.74857941539779e-13
-2.6227250539037e-12
-2.01641279867666e-13
-4.23194902567819e-12
-4.76312793807095e-13
-4.44039432039963e-12
-6.50095133408999e-13
-4.11468770813145e-12
-7.41390760338678e-13
-3.62747272102034e-12
-7.71581176082673e-13
-3.1229632804088e-12
-7.60084262901544e-13
-2.65283570025562e-12
-7.22232990891777e-13
-2.23476899041515e-12
-6.69231282369367e-13
-1.87210604628886e-12
-6.08802886212049e-13
-1.56233884473206e-12
-5.45964679044463e-13
-1.30036692191062e-12
-4.83796618739445e-13
-1.08039874528706e-12
-4.24019380769177e-13
-8.96798166513621e-13
-3.67447791032122e-13
-7.44512196324505e-13
-3.14312453064081e-13
-6.19216205027139e-13
-2.64470041273854e-13
-5.17321022378248e-13
-2.17551331757988e-13
-4.35929247274726e-13
-1.73054934747543e-13
-3.7275764626024e-13
-1.30399426172351e-13
-3.26078300487756e-13
-8.89684372418126e-14
-2.94632344692384e-13
-4.81252338000715e-14
-2.77599264893519e-13
-7.22736472913411e-15
-2.74560630098388e-13
3.43645124717404e-14
-2.85482225791385e-13
7.72753969213714e-14
-3.10726096935172e-13
1.22108197795818e-13
-3.51056642185654e-13
1.69417935720418e-13
-4.07662882830378e-13
2.19677133402791e-13
-4.82215642105129e-13
2.73218618800495e-13
-5.76920462020758e-13
3.30143485595582e-13
-6.9462085171033e-13
3.90170558661548e-13
-8.38830449520747e-13
4.52426482820004e-13
-1.01380505056199e-12
5.15112200508389e-13
-1.22450024015716e-12
5.75076191184742e-13
-1.47643451160604e-12
6.27200437062052e-13
-1.77521783355389e-12