/*--------------------------------*- C++ -*----------------------------------*\
  =========                 |
  \\      /  F ield         | OpenFOAM: The Open Source CFD Toolbox
   \\    /   O peration     | Website:  https://openfoam.org
    \\  /    A nd           | Version:  10
     \\/     M anipulation  |
\*---------------------------------------------------------------------------*/
FoamFile
{
    format      ascii;
    class       volScalarField;
    location    "7.8";
    object      rho;
}
// * * * * * * * * * * * * * * * * * * * * * * * * * * * * * * * * * * * * * //

dimensions      [1 -3 0 0 0 0 0];

internalField   nonuniform List<scalar> 
2500
(
1.14556291411048
1.14557490897684
1.1456120950055
1.14564144003128
1.14566061927757
1.14567232929275
1.14567923818003
1.14568320615366
1.14568541522829
1.14568659819752
1.14568721225201
1.14568751736683
1.14568766312302
1.14568773222263
1.1456877646202
1.14568778085618
1.14568778805221
1.14568779267669
1.14568779637663
1.14568779873266
1.14568780058315
1.14568780210199
1.14568780331402
1.14568780406328
1.14568780480893
1.14568780539049
1.14568780557896
1.14568780557481
1.14568780533362
1.14568780481284
1.14568780391086
1.145687802199
1.14568779982394
1.14568779577967
1.14568778813792
1.14568777239649
1.14568773874066
1.14568766712815
1.14568751330208
1.14568719914169
1.14568657540824
1.14568538005866
1.14568316980427
1.14567921883524
1.14567234528677
1.14566069255413
1.14564151576336
1.14561200902117
1.1455746175322
1.14556326906993
1.14854616561197
1.1486274753691
1.14873681998667
1.14882049941764
1.14887592071179
1.14891048951661
1.14893139182988
1.1489437026787
1.14895073539916
1.14895461143156
1.1489566686866
1.14895771722724
1.14895823050964
1.14895847302406
1.14895858386306
1.1489586334722
1.14895865480971
1.14895866453397
1.14895866954794
1.14895867221684
1.14895867393541
1.14895867522409
1.14895867622006
1.14895867689462
1.14895867748777
1.14895867795594
1.14895867817786
1.14895867824945
1.14895867815212
1.14895867776564
1.1489586768236
1.14895867463877
1.14895866998114
1.14895865963883
1.14895863628861
1.14895858331426
1.14895846534604
1.1489582103624
1.1489576762368
1.14895660045287
1.14895451260958
1.14895061031517
1.14894357776466
1.14893131783717
1.14891052847535
1.14887609041373
1.14882061018445
1.14873637142654
1.14862624628486
1.14854772022305
1.15166572642877
1.15181725634169
1.15197813642032
1.15209667962366
1.15217431956023
1.15222249967481
1.15225155364983
1.15226864815243
1.15227841850311
1.15228381421954
1.15228668446665
1.15228815192806
1.152288872676
1.15228921335169
1.15228936856616
1.15228943702511
1.15228946614482
1.15228947854381
1.15228948408336
1.15228948668325
1.1522894881273
1.15228948911933
1.15228948986531
1.15228949038494
1.1522894908107
1.15228949115169
1.15228949135028
1.15228949145787
1.15228949146754
1.15228949121218
1.15228949034067
1.152289488008
1.15228948223709
1.15228946856969
1.15228943670752
1.15228936327852
1.1522891986492
1.15228884191521
1.15228809601737
1.15228659511845
1.15228368710389
1.15227826034347
1.15226848980773
1.15225145502356
1.15222252936607
1.15217446037197
1.15209659746397
1.15197700159752
1.15181444362767
1.15166553149456
1.15455882391804
1.1547521381076
1.1549285468452
1.15505335569267
1.15513296550004
1.15518124740594
1.15520976085374
1.15522623190879
1.15523549977015
1.15524055118817
1.15524320810099
1.15524455343312
1.15524520862319
1.15524551574425
1.15524565444675
1.15524571491265
1.15524574031407
1.15524575080808
1.15524575521885
1.15524575714653
1.15524575813192
1.15524575878421
1.15524575927922
1.1552457596298
1.15524575990412
1.15524576012922
1.15524576028306
1.15524576039786
1.1552457604742
1.15524576039763
1.15524575985644
1.1552457581077
1.155245753362
1.15524574175669
1.15524571425456
1.15524564996105
1.15524550408059
1.15524518457546
1.15524450984998
1.15524313762451
1.15524044877042
1.15523536844326
1.15522609261252
1.1552096566306
1.15518122019966
1.15513294807278
1.15505291047327
1.1549266189775
1.15474762479716
1.15455492219758
1.156982276311
1.15718126445051
1.15734482247316
1.15745606859816
1.15752504035795
1.15756583969123
1.15758939986921
1.15760275035921
1.15761014463676
1.15761412410686
1.15761619597855
1.15761723653914
1.15761773994483
1.15761797453511
1.15761807986651
1.15761812544403
1.1576181444078
1.15761815207479
1.15761815515282
1.15761815640715
1.15761815699161
1.15761815736409
1.15761815765537
1.15761815786391
1.15761815801981
1.15761815815255
1.15761815825832
1.15761815835838
1.15761815844886
1.15761815847476
1.15761815823208
1.15761815713003
1.15761815375921
1.15761814530174
1.15761812504724
1.1576180771814
1.15761796757952
1.1576177255351
1.15761721019204
1.1576161526835
1.15761405972155
1.15761005945038
1.15760265523708
1.15758931818189
1.15756578399637
1.15752490753478
1.15745538097101
1.15734242818334
1.15717563282313
1.1569748878703
1.15883822578329
1.15901428751524
1.15914794260092
1.15923554344179
1.15928832931726
1.15931877673918
1.15933596772617
1.15934552588028
1.15935074020101
1.15935351398946
1.15935494548204
1.15935565972403
1.15935600357674
1.15935616319023
1.15935623459191
1.15935626533367
1.15935627802403
1.15935628306087
1.15935628500078
1.15935628573191
1.15935628603014
1.15935628620743
1.15935628635555
1.15935628646324
1.15935628653843
1.15935628660697
1.15935628667267
1.15935628674929
1.15935628683432
1.15935628688739
1.15935628683139
1.15935628625059
1.15935628410046
1.1593562785669
1.15935626520852
1.15935623335744
1.15935615991243
1.15935599670012
1.15935564697975
1.15935492416188
1.15935348152517
1.15935069598368
1.15934547457363
1.15933591934229
1.1593187258166
1.15928816413041
1.15923481392835
1.15914553925289
1.15900846557748
1.1588289319368
1.1601494976007
1.16028784937014
1.16038634408355
1.16044871099008
1.1604852607166
1.16050582662348
1.1605171843784
1.16052338364384
1.16052671723212
1.16052847180281
1.16052937048199
1.16052981656369
1.16053003058151
1.16053012969022
1.16053017392902
1.16053019291081
1.16053020069349
1.1605302037289
1.16053020485023
1.16053020523558
1.16053020536204
1.16053020542325
1.1605302054831
1.16053020552886
1.16053020555574
1.16053020558509
1.1605302056222
1.16053020567521
1.16053020574358
1.16053020580309
1.16053020582042
1.1605302055573
1.16053020432082
1.16053020100079
1.16053019292428
1.16053017351737
1.16053012852754
1.16053002809392
1.16052981186513
1.16052936244739
1.16052845924397
1.16052669972736
1.16052336319844
1.16051716473414
1.16050579677443
1.16048512354901
1.16044809287939
1.16038428964817
1.16028266207335
1.16014014954014
1.161010539756
1.16110906097779
1.16117551709944
1.16121627038238
1.16123952261864
1.16125229490006
1.16125919807486
1.1612628989212
1.16126486185681
1.16126588495783
1.1612664055762
1.16126666295831
1.16126678616479
1.16126684315111
1.16126686856093
1.16126687943814
1.16126688387077
1.16126688557009
1.16126688616934
1.16126688635321
1.16126688639764
1.16126688640171
1.16126688641289
1.16126688642671
1.16126688642772
1.16126688643563
1.16126688645437
1.16126688648791
1.16126688653676
1.16126688658805
1.16126688662381
1.16126688652801
1.16126688587687
1.16126688402744
1.16126687948622
1.16126686849886
1.16126684292735
1.16126678566657
1.16126666197591
1.1612664038184
1.1612658820916
1.1612648578985
1.16126289512299
1.16125919628831
1.16125228598956
1.16123943514392
1.16121582681987
1.1611739742411
1.16110497123551
1.16100249029749
1.16153935119284
1.16160381649296
1.1616453291367
1.16167003985988
1.16168378271639
1.16169115812527
1.16169506171673
1.16169711821601
1.16169819467227
1.16169875065183
1.16169903196578
1.16169917061072
1.1616992368923
1.16169926754051
1.16169928120331
1.16169928704259
1.16169928940842
1.1616992902995
1.16169929059668
1.16169929066722
1.16169929066905
1.16169929065988
1.16169929065636
1.16169929065595
1.16169929065099
1.16169929065145
1.16169929066043
1.1616992906797
1.16169929071146
1.16169929074901
1.16169929078086
1.16169929075747
1.1616992904415
1.16169928947779
1.16169928707908
1.16169928123983
1.16169926761321
1.16169923704557
1.16169917088077
1.16169903238834
1.16169875127999
1.16169819580606
1.1616971209721
1.16169506775238
1.16169116238265
1.1616837394716
1.16166976237157
1.16164429007578
1.16160090942749
1.1615332057396
1.16184477831153
1.16188393897875
1.1619081555541
1.1619221774579
1.16192978818314
1.16193378235084
1.16193585375278
1.16193692654918
1.16193748094666
1.16193776484403
1.16193790777165
1.16193797804858
1.16193801162793
1.16193802716168
1.16193803408937
1.16193803704686
1.16193803823813
1.16193803867853
1.16193803881306
1.16193803883351
1.1619380388259
1.16193803881488
1.16193803880747
1.1619380388022
1.16193803879696
1.16193803879578
1.16193803879948
1.16193803881039
1.16193803882954
1.16193803885405
1.16193803887782
1.1619380388781
1.16193803873442
1.16193803826247
1.1619380370633
1.16193803412794
1.16193802726678
1.16193801186599
1.16193797850173
1.16193790854718
1.16193776609831
1.1619374830521
1.16193693051714
1.1619358612758
1.16193379174598
1.16192977362265
1.1619220239506
1.16190751885266
1.1618820498013
1.1618405281545
1.16201147960505
1.16203374347682
1.16204702890787
1.16205452612983
1.16205850247805
1.16206054499248
1.16206158351984
1.16206211246053
1.16206238240223
1.16206251950787
1.16206258822441
1.16206262195394
1.16206263807213
1.162062645536
1.16206264886764
1.16206265028879
1.16206265085779
1.16206265106331
1.16206265111888
1.1620626511218
1.16206265111461
1.16206265110589
1.16206265109934
1.16206265109426
1.16206265109036
1.16206265108885
1.1620626510903
1.16206265109631
1.16206265110712
1.16206265112172
1.16206265113705
1.16206265114231
1.16206265108115
1.16206265086211
1.1620626502914
1.16206264888724
1.16206264560271
1.16206263823309
1.16206262227117
1.16206258878432
1.16206252044829
1.16206238403958
1.16206211560895
1.16206158969429
1.16206055438876
1.16205850216647
1.1620544507693
1.1620466701184
1.1620326088945
1.16200877762388
1.1620978246928
1.16210974839502
1.16211664271995
1.16212044137329
1.16212241246519
1.16212340433396
1.16212389906587
1.16212414693342
1.16212427187974
1.16212433484067
1.16212436626784
1.1621243816751
1.16212438904233
1.16212439245895
1.16212439398592
1.16212439463683
1.16212439489581
1.1621243949866
1.16212439500802
1.1621243950065
1.1621243950011
1.16212439499535
1.16212439499086
1.16212439498731
1.16212439498483
1.16212439498365
1.16212439498422
1.1621243949874
1.16212439499315
1.16212439500121
1.16212439501009
1.16212439501465
1.16212439499015
1.16212439489319
1.16212439463338
1.16212439399102
1.16212439248847
1.16212438912153
1.16212438183801
1.1621243665646
1.16212433536096
1.16212427284395
1.1621241489194
1.16212390323995
1.16212341156626
1.16212241706432
1.16212040884507
1.16211645529869
1.1621091132416
1.16209622861568
1.16214042552016
1.16214647386538
1.16214987472828
1.16215170736214
1.16215263881962
1.16215309839745
1.16215332339785
1.16215343431655
1.16215348954982
1.16215351716751
1.16215353090113
1.16215353762863
1.1621535408489
1.16215354234511
1.1621535430148
1.16215354330011
1.16215354341288
1.162153543451
1.16215354345862
1.16215354345676
1.16215354345334
1.16215354344997
1.1621535434473
1.16215354344518
1.16215354344376
1.16215354344304
1.16215354344327
1.16215354344487
1.16215354344777
1.16215354345195
1.16215354345668
1.16215354345961
1.16215354345032
1.16215354340912
1.16215354329552
1.16215354301332
1.16215354235363
1.16215354087847
1.16215353769418
1.16215353102624
1.16215351740121
1.16215349002635
1.16215343540372
1.16215332588699
1.16215310317486
1.1621526437497
1.16215169543533
1.16214978343136
1.16214614009666
1.16213954219222
1.16216051022188
1.16216342949171
1.16216503084613
1.16216587616392
1.16216629749578
1.1621665015046
1.16216659959588
1.16216664718758
1.1621666706003
1.16216668221811
1.16216668797498
1.16216669079368
1.16216669214482
1.16216669277394
1.16216669305601
1.1621666931761
1.16216669322324
1.1621666932385
1.16216669324095
1.1621666932397
1.16216669323778
1.16216669323597
1.16216669323453
1.16216669323338
1.16216669323264
1.16216669323225
1.16216669323235
1.16216669323312
1.16216669323452
1.16216669323656
1.16216669323892
1.16216669324053
1.16216669323718
1.16216669322032
1.16216669317244
1.16216669305295
1.16216669277395
1.16216669215177
1.16216669081271
1.16216668801518
1.16216668230304
1.16216667080388
1.16216664772344
1.1621666009483
1.16216650433666
1.16216630119055
1.16216587285375
1.16216498919795
1.16216326388918
1.16216004914753
1.16216958177885
1.16217092777628
1.16217165014559
1.16217202425901
1.16217220733159
1.1621722943993
1.16217233553825
1.16217235518756
1.16217236473786
1.16217236944113
1.16217237176389
1.16217237290093
1.16217237344689
1.1621723737017
1.16217237381616
1.16217237386485
1.16217237388382
1.1621723738897
1.16217237389039
1.16217237388966
1.16217237388867
1.16217237388777
1.16217237388705
1.16217237388648
1.16217237388611
1.16217237388592
1.16217237388597
1.16217237388632
1.16217237388697
1.16217237388793
1.16217237388904
1.16217237388984
1.1621723738887
1.16217237388202
1.16217237386251
1.1621723738136
1.16217237369957
1.16217237344612
1.16217237290263
1.16217237177074
1.16217236946327
1.16217236481282
1.16217235543018
1.16217233622062
1.1621722959427
1.16217220966232
1.1621720239533
1.16217163230572
1.16217084981536
1.1621693535476
1.16217351275688
1.16217410765997
1.16217442082639
1.16217458018224
1.1621746568294
1.16217469266563
1.16217470931522
1.16217471714625
1.1621747209069
1.162174722745
1.16217472364982
1.16217472409274
1.16217472430582
1.16217472440552
1.16217472445039
1.16217472446945
1.16217472447681
1.16217472447898
1.16217472447914
1.16217472447877
1.1621747244783
1.16217472447788
1.16217472447754
1.16217472447727
1.16217472447711
1.16217472447702
1.16217472447704
1.1621747244772
1.16217472447749
1.16217472447792
1.16217472447842
1.16217472447879
1.16217472447842
1.16217472447586
1.16217472446815
1.16217472444876
1.16217472440361
1.16217472430361
1.16217472409008
1.16217472364707
1.16217472274611
1.16217472092968
1.16217471724848
1.16217470963911
1.16217469345075
1.16217465814378
1.16217458062172
1.16217441364428
1.16217407268972
1.16217340512752
1.16217514559219
1.16217539840584
1.16217552924516
1.1621755947526
1.16217562575624
1.16217564001948
1.16217564653981
1.16217564956081
1.16217565099432
1.16217565168971
1.16217565203092
1.16217565219797
1.16217565227849
1.16217565231626
1.16217565233328
1.16217565234051
1.16217565234326
1.16217565234404
1.16217565234405
1.16217565234388
1.16217565234366
1.16217565234347
1.16217565234332
1.16217565234321
1.16217565234314
1.1621756523431
1.16217565234311
1.16217565234318
1.16217565234331
1.1621756523435
1.16217565234371
1.16217565234388
1.16217565234377
1.16217565234282
1.16217565233987
1.16217565233241
1.16217565231506
1.16217565227677
1.16217565219537
1.16217565202721
1.16217565168625
1.16217565099913
1.16217564960131
1.16217564668583
1.16217564039626
1.16217562643814
1.16217559519673
1.16217552653091
1.16217538340536
1.16217509704719
1.16217579127222
1.16217589485285
1.16217594766224
1.16217597371214
1.16217598585723
1.1621759913599
1.1621759938367
1.16217599496753
1.16217599549778
1.16217599575305
1.16217599587789
1.16217599593901
1.16217599596852
1.16217599598239
1.16217599598865
1.16217599599129
1.16217599599229
1.16217599599255
1.16217599599254
1.16217599599246
1.16217599599237
1.16217599599229
1.16217599599222
1.16217599599218
1.16217599599215
1.16217599599214
1.16217599599214
1.16217599599218
1.16217599599223
1.16217599599231
1.16217599599241
1.16217599599248
1.16217599599246
1.16217599599212
1.16217599599103
1.16217599598825
1.16217599598178
1.16217599596753
1.16217599593737
1.16217599587535
1.16217599575002
1.1621759954977
1.16217599498277
1.16217599389973
1.16217599153184
1.16217598618812
1.16217597400447
1.16217594670356
1.16217588868031
1.16217577025889
1.16217602839445
1.1621760694079
1.16217609004445
1.16217610008659
1.1621761047036
1.16217610676557
1.16217610768003
1.1621761080916
1.1621761082823
1.16217610837338
1.16217610841776
1.16217610843948
1.16217610844997
1.1621761084549
1.16217610845712
1.16217610845805
1.16217610845839
1.16217610845847
1.16217610845846
1.16217610845842
1.16217610845838
1.16217610845835
1.16217610845832
1.16217610845831
1.1621761084583
1.1621761084583
1.1621761084583
1.16217610845832
1.16217610845834
1.16217610845838
1.16217610845842
1.16217610845846
1.16217610845846
1.16217610845835
1.16217610845797
1.16217610845698
1.16217610845464
1.1621761084495
1.16217610843865
1.1621761084164
1.1621761083716
1.1621761082815
1.16217610809712
1.16217610770625
1.16217610684066
1.16217610485543
1.16217610024787
1.16217608973112
1.16217606696464
1.16217601963906
1.16217610218803
1.16217611791636
1.16217612573901
1.16217612949871
1.16217613120508
1.16217613195689
1.16217613228559
1.16217613243146
1.16217613249822
1.16217613252983
1.16217613254515
1.16217613255262
1.16217613255623
1.16217613255791
1.16217613255866
1.16217613255897
1.16217613255907
1.16217613255909
1.16217613255908
1.16217613255906
1.16217613255904
1.16217613255903
1.16217613255902
1.16217613255902
1.16217613255901
1.16217613255902
1.16217613255902
1.16217613255903
1.16217613255904
1.16217613255906
1.16217613255909
1.16217613255911
1.16217613255912
1.16217613255909
1.16217613255898
1.16217613255864
1.16217613255784
1.16217613255606
1.16217613255228
1.16217613254454
1.16217613252897
1.16217613249767
1.16217613243343
1.16217613229619
1.16217613198844
1.16217613127148
1.16217612957871
1.16217612564627
1.16217611698381
1.16217609866735
1.16217611277242
1.1621761186256
1.162176121507
1.16217612287622
1.16217612349024
1.16217612375731
1.16217612387247
1.16217612392284
1.16217612394558
1.16217612395622
1.16217612396133
1.1621761239638
1.16217612396498
1.16217612396552
1.16217612396574
1.16217612396583
1.16217612396585
1.16217612396585
1.16217612396584
1.16217612396583
1.16217612396582
1.16217612396581
1.16217612396581
1.16217612396581
1.16217612396581
1.16217612396581
1.16217612396582
1.16217612396583
1.16217612396584
1.16217612396585
1.16217612396586
1.16217612396588
1.16217612396589
1.1621761239659
1.16217612396588
1.16217612396578
1.16217612396553
1.16217612396496
1.16217612396371
1.16217612396112
1.16217612395589
1.16217612394534
1.16217612392358
1.16217612387668
1.16217612377015
1.1621761235181
1.16217612291301
1.16217612148341
1.16217611828167
1.16217611140292
1.16217609962782
1.16217610174528
1.16217610277808
1.16217610326373
1.16217610347908
1.16217610357159
1.16217610361091
1.16217610362782
1.16217610363532
1.16217610363876
1.16217610364038
1.16217610364114
1.16217610364148
1.16217610364162
1.16217610364167
1.16217610364168
1.16217610364167
1.16217610364166
1.16217610364165
1.16217610364164
1.16217610364164
1.16217610364163
1.16217610364163
1.16217610364164
1.16217610364164
1.16217610364164
1.16217610364165
1.16217610364165
1.16217610364166
1.16217610364167
1.16217610364168
1.1621761036417
1.16217610364171
1.16217610364173
1.16217610364174
1.16217610364173
1.16217610364168
1.16217610364152
1.16217610364115
1.16217610364035
1.16217610363868
1.16217610363527
1.16217610362815
1.16217610361258
1.16217610357668
1.16217610349037
1.1621761032797
1.16217610277377
1.1621761016225
1.16217609911144
1.16217607782662
1.16217607857243
1.16217607893305
1.16217607910092
1.16217607917455
1.16217607920576
1.16217607921881
1.16217607922429
1.16217607922664
1.16217607922768
1.16217607922813
1.16217607922831
1.16217607922838
1.16217607922839
1.16217607922838
1.16217607922836
1.16217607922835
1.16217607922833
1.16217607922832
1.16217607922832
1.16217607922831
1.16217607922831
1.16217607922831
1.16217607922831
1.16217607922832
1.16217607922832
1.16217607922833
1.16217607922833
1.16217607922834
1.16217607922835
1.16217607922836
1.16217607922837
1.16217607922839
1.16217607922841
1.16217607922843
1.16217607922845
1.16217607922846
1.16217607922845
1.16217607922838
1.16217607922817
1.16217607922771
1.16217607922669
1.16217607922447
1.1621760792195
1.16217607920777
1.16217607917901
1.16217607910755
1.16217607893313
1.16217607852995
1.16217607763756
1.16217605295143
1.16217605320752
1.1621760533302
1.1621760533867
1.16217605341119
1.1621760534214
1.16217605342557
1.16217605342724
1.1621760534279
1.16217605342815
1.16217605342823
1.16217605342823
1.16217605342821
1.16217605342818
1.16217605342815
1.16217605342813
1.16217605342811
1.1621760534281
1.16217605342809
1.16217605342808
1.16217605342808
1.16217605342808
1.16217605342808
1.16217605342808
1.16217605342808
1.16217605342809
1.16217605342809
1.1621760534281
1.16217605342811
1.16217605342811
1.16217605342812
1.16217605342814
1.16217605342815
1.16217605342817
1.1621760534282
1.16217605342823
1.16217605342826
1.16217605342829
1.16217605342831
1.16217605342831
1.16217605342823
1.16217605342799
1.16217605342738
1.16217605342589
1.16217605342222
1.16217605341293
1.16217605338938
1.16217605333084
1.16217605319328
1.16217605288413
1.16217602701211
1.1621760270979
1.16217602713848
1.1621760271569
1.16217602716475
1.16217602716794
1.16217602716918
1.16217602716962
1.16217602716974
1.16217602716975
1.16217602716972
1.16217602716967
1.16217602716962
1.16217602716958
1.16217602716955
1.16217602716953
1.16217602716951
1.16217602716949
1.16217602716949
1.16217602716948
1.16217602716948
1.16217602716948
1.16217602716948
1.16217602716948
1.16217602716948
1.16217602716949
1.16217602716949
1.1621760271695
1.16217602716951
1.16217602716951
1.16217602716952
1.16217602716954
1.16217602716955
1.16217602716957
1.16217602716959
1.16217602716963
1.16217602716966
1.16217602716971
1.16217602716976
1.16217602716981
1.16217602716984
1.16217602716984
1.16217602716974
1.16217602716937
1.16217602716831
1.16217602716546
1.16217602715797
1.16217602713894
1.1621760270933
1.1621760269888
1.16217600071318
1.16217600074121
1.16217600075414
1.16217600075984
1.1621760007622
1.1621760007631
1.1621760007634
1.16217600076346
1.16217600076343
1.16217600076338
1.16217600076331
1.16217600076325
1.16217600076321
1.16217600076317
1.16217600076314
1.16217600076311
1.1621760007631
1.16217600076308
1.16217600076308
1.16217600076307
1.16217600076307
1.16217600076307
1.16217600076307
1.16217600076307
1.16217600076308
1.16217600076308
1.16217600076308
1.16217600076309
1.1621760007631
1.1621760007631
1.16217600076311
1.16217600076312
1.16217600076314
1.16217600076316
1.16217600076318
1.16217600076321
1.16217600076325
1.16217600076329
1.16217600076335
1.16217600076341
1.16217600076347
1.16217600076354
1.16217600076358
1.16217600076355
1.16217600076331
1.16217600076252
1.16217600076029
1.16217600075441
1.1621760007398
1.16217600070534
1.16217597429547
1.16217597430437
1.1621759743082
1.16217597430976
1.16217597431035
1.16217597431054
1.16217597431056
1.16217597431052
1.16217597431045
1.16217597431038
1.16217597431032
1.16217597431026
1.16217597431022
1.16217597431018
1.16217597431015
1.16217597431013
1.16217597431012
1.16217597431011
1.1621759743101
1.1621759743101
1.1621759743101
1.1621759743101
1.1621759743101
1.1621759743101
1.1621759743101
1.16217597431011
1.16217597431011
1.16217597431012
1.16217597431012
1.16217597431013
1.16217597431014
1.16217597431015
1.16217597431016
1.16217597431018
1.1621759743102
1.16217597431023
1.16217597431026
1.1621759743103
1.16217597431035
1.16217597431041
1.16217597431048
1.16217597431056
1.16217597431063
1.16217597431069
1.16217597431069
1.16217597431053
1.16217597430998
1.16217597430836
1.16217597430399
1.16217597429294
1.16217594783937
1.16217594784209
1.16217594784299
1.16217594784324
1.16217594784329
1.16217594784326
1.16217594784321
1.16217594784315
1.16217594784308
1.16217594784302
1.16217594784297
1.16217594784292
1.16217594784288
1.16217594784285
1.16217594784283
1.16217594784281
1.16217594784279
1.16217594784279
1.16217594784278
1.16217594784278
1.16217594784278
1.16217594784278
1.16217594784278
1.16217594784278
1.16217594784278
1.16217594784279
1.16217594784279
1.1621759478428
1.1621759478428
1.16217594784281
1.16217594784282
1.16217594784283
1.16217594784284
1.16217594784286
1.16217594784287
1.1621759478429
1.16217594784293
1.16217594784296
1.16217594784301
1.16217594784306
1.16217594784312
1.16217594784319
1.16217594784326
1.16217594784333
1.16217594784339
1.16217594784342
1.16217594784337
1.1621759478431
1.16217594784203
1.16217594783862
1.16217592137113
1.16217592137188
1.16217592137187
1.16217592137172
1.16217592137162
1.16217592137155
1.16217592137149
1.16217592137143
1.16217592137138
1.16217592137133
1.16217592137128
1.16217592137124
1.16217592137121
1.16217592137119
1.16217592137117
1.16217592137115
1.16217592137114
1.16217592137114
1.16217592137113
1.16217592137113
1.16217592137113
1.16217592137113
1.16217592137113
1.16217592137114
1.16217592137114
1.16217592137114
1.16217592137115
1.16217592137115
1.16217592137116
1.16217592137116
1.16217592137117
1.16217592137118
1.16217592137119
1.1621759213712
1.16217592137122
1.16217592137124
1.16217592137126
1.1621759213713
1.16217592137133
1.16217592137138
1.16217592137143
1.16217592137148
1.16217592137154
1.1621759213716
1.16217592137166
1.16217592137173
1.16217592137183
1.16217592137196
1.16217592137192
1.16217592137095
1.16217589489911
1.16217589489926
1.16217589489898
1.16217589489873
1.16217589489859
1.16217589489852
1.16217589489847
1.16217589489843
1.16217589489839
1.16217589489835
1.16217589489832
1.16217589489829
1.16217589489827
1.16217589489825
1.16217589489823
1.16217589489822
1.16217589489821
1.16217589489821
1.16217589489821
1.1621758948982
1.16217589489821
1.16217589489821
1.16217589489821
1.16217589489821
1.16217589489821
1.16217589489822
1.16217589489822
1.16217589489823
1.16217589489823
1.16217589489824
1.16217589489824
1.16217589489825
1.16217589489826
1.16217589489827
1.16217589489828
1.1621758948983
1.16217589489832
1.16217589489835
1.16217589489838
1.16217589489841
1.16217589489845
1.16217589489849
1.16217589489853
1.16217589489858
1.16217589489862
1.16217589489869
1.16217589489881
1.16217589489906
1.16217589489932
1.16217589489912
1.16217586842595
1.16217586842592
1.16217586842557
1.16217586842529
1.16217586842516
1.16217586842511
1.16217586842508
1.16217586842505
1.16217586842503
1.16217586842501
1.16217586842498
1.16217586842497
1.16217586842495
1.16217586842494
1.16217586842492
1.16217586842492
1.16217586842491
1.16217586842491
1.16217586842491
1.16217586842491
1.16217586842491
1.16217586842491
1.16217586842491
1.16217586842492
1.16217586842492
1.16217586842492
1.16217586842493
1.16217586842493
1.16217586842494
1.16217586842494
1.16217586842495
1.16217586842495
1.16217586842496
1.16217586842497
1.16217586842498
1.16217586842499
1.16217586842501
1.16217586842503
1.16217586842505
1.16217586842507
1.1621758684251
1.16217586842513
1.16217586842516
1.16217586842518
1.16217586842521
1.16217586842526
1.16217586842538
1.16217586842564
1.16217586842599
1.16217586842601
1.16217584195244
1.16217584195237
1.16217584195201
1.16217584195174
1.16217584195163
1.16217584195159
1.16217584195158
1.16217584195158
1.16217584195157
1.16217584195156
1.16217584195155
1.16217584195154
1.16217584195153
1.16217584195152
1.16217584195151
1.16217584195151
1.16217584195151
1.16217584195151
1.16217584195151
1.16217584195151
1.16217584195151
1.16217584195151
1.16217584195152
1.16217584195152
1.16217584195152
1.16217584195153
1.16217584195153
1.16217584195153
1.16217584195154
1.16217584195154
1.16217584195154
1.16217584195155
1.16217584195155
1.16217584195156
1.16217584195157
1.16217584195158
1.16217584195159
1.1621758419516
1.16217584195162
1.16217584195163
1.16217584195165
1.16217584195166
1.16217584195168
1.16217584195168
1.16217584195169
1.16217584195172
1.16217584195182
1.16217584195207
1.16217584195244
1.16217584195252
1.16217581547884
1.16217581547875
1.1621758154784
1.16217581547816
1.16217581547807
1.16217581547805
1.16217581547806
1.16217581547807
1.16217581547808
1.16217581547808
1.16217581547808
1.16217581547808
1.16217581547807
1.16217581547807
1.16217581547807
1.16217581547807
1.16217581547807
1.16217581547807
1.16217581547808
1.16217581547808
1.16217581547808
1.16217581547809
1.16217581547809
1.16217581547809
1.1621758154781
1.1621758154781
1.1621758154781
1.16217581547811
1.16217581547811
1.16217581547811
1.16217581547811
1.16217581547812
1.16217581547812
1.16217581547813
1.16217581547813
1.16217581547814
1.16217581547814
1.16217581547815
1.16217581547816
1.16217581547816
1.16217581547817
1.16217581547817
1.16217581547817
1.16217581547816
1.16217581547815
1.16217581547816
1.16217581547824
1.16217581547847
1.16217581547883
1.16217581547892
1.1621757890052
1.16217578900513
1.16217578900479
1.16217578900457
1.1621757890045
1.16217578900451
1.16217578900453
1.16217578900456
1.16217578900458
1.1621757890046
1.16217578900461
1.16217578900461
1.16217578900462
1.16217578900462
1.16217578900462
1.16217578900463
1.16217578900463
1.16217578900464
1.16217578900464
1.16217578900464
1.16217578900465
1.16217578900465
1.16217578900466
1.16217578900466
1.16217578900466
1.16217578900467
1.16217578900467
1.16217578900467
1.16217578900467
1.16217578900468
1.16217578900468
1.16217578900468
1.16217578900468
1.16217578900468
1.16217578900468
1.16217578900469
1.16217578900469
1.16217578900469
1.16217578900469
1.16217578900469
1.16217578900468
1.16217578900467
1.16217578900465
1.16217578900463
1.1621757890046
1.16217578900459
1.16217578900465
1.16217578900486
1.1621757890052
1.16217578900528
1.16217576253155
1.16217576253149
1.16217576253118
1.16217576253099
1.16217576253094
1.16217576253096
1.16217576253101
1.16217576253105
1.16217576253109
1.16217576253111
1.16217576253113
1.16217576253115
1.16217576253116
1.16217576253117
1.16217576253118
1.16217576253118
1.16217576253119
1.1621757625312
1.1621757625312
1.16217576253121
1.16217576253121
1.16217576253122
1.16217576253122
1.16217576253123
1.16217576253123
1.16217576253123
1.16217576253123
1.16217576253124
1.16217576253124
1.16217576253124
1.16217576253124
1.16217576253124
1.16217576253124
1.16217576253124
1.16217576253124
1.16217576253124