/*--------------------------------*- C++ -*----------------------------------*\
  =========                 |
  \\      /  F ield         | OpenFOAM: The Open Source CFD Toolbox
   \\    /   O peration     | Website:  https://openfoam.org
    \\  /    A nd           | Version:  10
     \\/     M anipulation  |
\*---------------------------------------------------------------------------*/
FoamFile
{
    format      ascii;
    class       volScalarField;
    location    "7.8";
    object      T;
}
// * * * * * * * * * * * * * * * * * * * * * * * * * * * * * * * * * * * * * //

dimensions      [0 0 0 1 0 0 0];

internalField   nonuniform List<scalar> 
2500
(
304.350807926268
304.347621190512
304.337742212942
304.329946758194
304.324852040937
304.32174151178
304.319906335244
304.318852350399
304.318265572702
304.317951351619
304.317788246337
304.31770720176
304.317668486043
304.317650131839
304.317641526423
304.317637213839
304.317635302439
304.317634074095
304.317633091321
304.317632465517
304.317631973991
304.31763157056
304.317631248621
304.317631049605
304.317630851544
304.317630697071
304.317630647011
304.317630648113
304.317630712177
304.317630850505
304.317631090087
304.317631544787
304.317632175646
304.317633249877
304.317635279669
304.317639460889
304.317648400524
304.317667422205
304.317708281444
304.317791728705
304.31795740492
304.318274914493
304.318862005596
304.319911473674
304.321737263317
304.324832576272
304.329926640577
304.337765055064
304.347698619228
304.350713621307
303.56027562727
303.538787015227
303.509894122245
303.48778663656
303.473146514199
303.464015513358
303.458494644941
303.455243109595
303.453385662233
303.452361953471
303.451818609447
303.451541678925
303.451406115889
303.451342065449
303.451312791799
303.451299689553
303.451294054117
303.451291485853
303.45129016162
303.451289456741
303.451289002853
303.451288662501
303.451288399456
303.4512882213
303.451288064645
303.451287940997
303.451287882387
303.451287863477
303.451287889183
303.451287991254
303.451288240054
303.451288817086
303.451290047208
303.451292778706
303.451298945717
303.451312936747
303.451344093294
303.45141143698
303.451552504924
303.451836630711
303.452388053513
303.4534186986
303.455276101477
303.458514188063
303.464005223094
303.473101687777
303.487757374889
303.510012637142
303.539111815948
303.559864744676
302.738003522267
302.698176143809
302.655902681208
302.624761372472
302.604368828132
302.591715445535
302.584085608624
302.579596617311
302.577030997408
302.575614141925
302.574860452195
302.574475117297
302.574285859316
302.574196402902
302.574155645897
302.574137669607
302.574130023215
302.574126767431
302.574125312834
302.574124630145
302.574124250963
302.574123990471
302.574123794591
302.574123658144
302.574123546346
302.574123456807
302.574123404662
302.57412337641
302.574123373871
302.574123440923
302.574123669765
302.574124282287
302.574125797637
302.574129386487
302.574137753008
302.57415703436
302.574200263567
302.574293936658
302.574489798653
302.574883913824
302.575647520942
302.577072528586
302.579638197786
302.58411150812
302.591707648129
302.60433184565
302.624782953575
302.656200830177
302.698915328241
302.738054764478
301.979394760899
301.928841140647
301.882723235767
301.85010341478
301.82930041766
301.816685173734
301.80923558829
301.804932434452
301.802511208621
301.801191543658
301.800497439304
301.800145979669
301.799974815658
301.799894582419
301.799858347379
301.799842551101
301.799835915171
301.799833173693
301.799832021414
301.799831517825
301.799831260404
301.799831089998
301.799830960682
301.799830869098
301.799830797434
301.799830738628
301.799830698439
301.799830668448
301.799830648505
301.799830668507
301.799830809885
301.79983126673
301.799832506504
301.799835538303
301.799842723031
301.799859519243
301.799897629477
301.799981097971
301.800157365489
301.800515850874
301.80121829982
301.80254551746
301.804968825856
301.809262817544
301.816692281967
301.829304971277
301.850219763984
301.883227155137
301.930021224051
301.980415274565
301.346852152469
301.295032743513
301.252453195324
301.22349903579
301.205550469887
301.194934239786
301.188804081718
301.185330508498
301.183406676208
301.182371313714
301.181832265326
301.181561538635
301.181430565808
301.181369531679
301.181342127277
301.181330269239
301.18132533538
301.181323340644
301.181322539827
301.181322213488
301.181322061429
301.181321964521
301.181321888742
301.181321834484
301.181321793925
301.181321759391
301.181321731872
301.181321705839
301.181321682299
301.181321675558
301.181321738695
301.181322025417
301.181322902408
301.18132510281
301.181330372479
301.18134282588
301.181371341348
301.181434314845
301.181568393464
301.181843529585
301.182388065174
301.18342883974
301.185355257397
301.188825335629
301.194948731404
301.205585032477
301.2236779882
301.253076421106
301.296499056186
301.348776553147
300.864220121773
300.818516909617
300.783831151659
300.761101589254
300.747407033999
300.739508444487
300.735048987487
300.73256959563
300.731217014451
300.730497505951
300.730126184448
300.729940914262
300.729851720977
300.729810318242
300.729791797105
300.729783822896
300.729780531106
300.729779224587
300.729778721393
300.729778531746
300.729778454388
300.729778408404
300.729778369983
300.729778342051
300.729778322548
300.729778304769
300.729778287726
300.729778267851
300.729778245795
300.729778232028
300.729778246552
300.729778397205
300.729778954932
300.729780390297
300.729783855369
300.729792117327
300.72981116849
300.729853504737
300.729944220058
300.730131714785
300.730505927029
300.731228484262
300.732582904502
300.735061538403
300.739521654336
300.747449887458
300.76129086001
300.784454790517
300.820027982832
300.866633062752
300.524158173555
300.48832391953
300.462818179928
300.446670170341
300.437207539257
300.431883340432
300.42894307225
300.427338245678
300.426475274565
300.426021068167
300.425788427283
300.425672950356
300.425617547719
300.425591891535
300.425580439481
300.425575525691
300.425573511002
300.425572725233
300.425572434959
300.425572335207
300.425572302474
300.425572286628
300.425572271137
300.425572259292
300.425572252335
300.425572244739
300.425572235131
300.42557222141
300.42557220371
300.425572188303
300.425572183817
300.425572251927
300.425572572011
300.425573431459
300.425575522212
300.425580546053
300.425592192525
300.425618191689
300.425674166677
300.425790507204
300.426024319282
300.426479806042
300.427343538428
300.428948157661
300.431891067757
300.437243050478
300.446830202738
300.463350142865
300.489667318131
300.526579706853
300.301273115371
300.275792262669
300.258606949206
300.248069270007
300.242057211934
300.238754935324
300.23697014796
300.236013318155
300.235505816376
300.235241302232
300.235106700929
300.235040157101
300.235008303191
300.234993569907
300.234987000437
300.234984188243
300.234983042232
300.234982602893
300.234982447966
300.234982400429
300.234982388945
300.234982387894
300.234982385006
300.234982381433
300.234982381173
300.234982379128
300.234982374284
300.234982365612
300.234982352983
300.234982339722
300.234982330476
300.234982355243
300.234982523585
300.234983001735
300.234984175822
300.234987016496
300.234993627767
300.235008432009
300.235040411101
300.235107155402
300.235242043278
300.235506839772
300.23601430016
300.236970609869
300.238757239115
300.242079828794
300.2481839591
300.259005904496
300.276849919507
300.303355163137
300.16454878931
300.147890615443
300.137164507579
300.130780072453
300.127229489444
300.125324024881
300.124315527147
300.12378423071
300.123506129063
300.123362492378
300.123289815298
300.123253996582
300.12323687284
300.123228954929
300.123225425171
300.123223916606
300.123223305403
300.123223075198
300.123222998424
300.123222980203
300.123222979731
300.123222982102
300.123222983013
300.123222983119
300.1232229844
300.123222984283
300.123222981964
300.123222976986
300.123222968781
300.123222959079
300.12322295085
300.123222956892
300.123223038521
300.12322328749
300.123223907191
300.123225415747
300.123228936157
300.123236833254
300.123253926826
300.12328970614
300.123362330102
300.123505836158
300.123783518683
300.124313967842
300.125322924983
300.127240661974
300.130851764765
300.137432972562
300.148641776695
300.166136903379
300.085634346709
300.075520122893
300.06926592631
300.065644734583
300.063679282235
300.062647807813
300.062112881072
300.061835838766
300.061692669619
300.061619355222
300.061582445235
300.06156429675
300.061555625139
300.06155161367
300.06154982465
300.061549060904
300.06154875327
300.061548639542
300.061548604803
300.061548599523
300.061548601487
300.061548604335
300.061548606251
300.061548607613
300.061548608966
300.061548609271
300.061548608315
300.0615486055
300.061548600555
300.061548594226
300.061548588086
300.061548588015
300.061548625117
300.061548746994
300.061549056667
300.061549814698
300.061551586538
300.061555563673
300.061564179738
300.061582244971
300.061619031323
300.061692125914
300.06183481408
300.06211093831
300.06264538158
300.063683042432
300.065684377759
300.069430358118
300.076008034672
300.086732097283
300.042577453176
300.036828816402
300.033398560154
300.031462835564
300.030436183295
300.029908829695
300.029640694607
300.029504128732
300.029434433195
300.029399034253
300.029381292514
300.029372583975
300.029368422463
300.029366495386
300.029365635197
300.029365268277
300.02936512137
300.029365068307
300.029365053961
300.029365053208
300.029365055064
300.029365057317
300.029365059008
300.029365060321
300.029365061327
300.029365061719
300.029365061345
300.029365059794
300.029365057003
300.029365053236
300.029365049277
300.029365047919
300.029365063711
300.029365120264
300.029365267612
300.029365630149
300.029366478174
300.029368380916
300.02937250208
300.029381147963
300.02939879146
300.029434010462
300.029503315862
300.02963910045
300.0299064037
300.030436263755
300.031482292955
300.033491197439
300.037121765596
300.043275132447
300.020277140812
300.017198814699
300.01541894479
300.014438276181
300.013929417215
300.013673355988
300.013545635912
300.013481646387
300.013449390216
300.013433136199
300.013425022943
300.013421045392
300.01341914346
300.013418261419
300.013417867214
300.013417699173
300.013417632314
300.013417608875
300.013417603345
300.013417603738
300.013417605134
300.013417606619
300.013417607777
300.013417608694
300.013417609335
300.01341760964
300.013417609494
300.013417608675
300.013417607189
300.01341760511
300.01341760282
300.013417601644
300.013417607969
300.013417633001
300.013417700075
300.013417865909
300.013418253811
300.013419123025
300.013421003348
300.013424946343
300.013433001894
300.013449141308
300.0134811337
300.013544558344
300.013671488909
300.013928229918
300.014446673725
300.015467330039
300.017362789821
300.020689202677
300.009272400033
300.007711013458
300.006833084177
300.006359993556
300.006119540202
300.006000901412
300.005942818135
300.005914184723
300.005899926357
300.005892796884
300.005889251559
300.005887514851
300.005886683534
300.005886297282
300.005886124397
300.005886050742
300.005886021627
300.005886011784
300.005886009818
300.005886010298
300.005886011179
300.005886012049
300.00588601274
300.005886013288
300.005886013654
300.005886013842
300.005886013784
300.005886013372
300.005886012622
300.005886011546
300.005886010326
300.005886009572
300.005886011971
300.00588602261
300.005886051938
300.005886124792
300.005886295095
300.005886675912
300.005887497944
300.005889219275
300.005892736569
300.005899803354
300.005913904085
300.005942175585
300.005999668154
300.006118267532
300.006363072452
300.006856652333
300.007797175791
300.009500433416
300.004080742855
300.003327154308
300.002913777645
300.002695566004
300.002586802756
300.002534139542
300.002508818023
300.002496532543
300.002490488679
300.002487489587
300.00248600346
300.002485275809
300.002484927005
300.002484764589
300.002484691767
300.00248466076
300.002484648589
300.002484644646
300.002484644011
300.002484644335
300.002484644828
300.002484645296
300.002484645669
300.002484645964
300.002484646156
300.002484646258
300.002484646234
300.002484646036
300.002484645675
300.002484645149
300.002484644542
300.00248464413
300.002484644995
300.002484649352
300.002484661717
300.002484692568
300.002484764599
300.002484925222
300.00248527091
300.002485993095
300.002487467675
300.002490436139
300.00249639423
300.002508468923
300.002533408489
300.002585849001
300.002696420515
300.002924528791
300.003369903329
300.004199766238
300.001732164484
300.001384709829
300.001198238244
300.001101664986
300.001054406735
300.001031931045
300.001021311359
300.001016239003
300.001013773618
300.001012559458
300.00101195982
300.001011666275
300.001011525319
300.001011459525
300.001011429969
300.001011417391
300.001011412489
300.001011410968
300.001011410787
300.001011410974
300.001011411228
300.001011411461
300.001011411648
300.001011411795
300.001011411889
300.001011411939
300.001011411928
300.001011411837
300.001011411671
300.001011411427
300.001011411142
300.001011410937
300.001011411237
300.001011412966
300.001011418008
300.001011430641
300.001011460088
300.001011525529
300.001011665848
300.001011958065
300.001012553757
300.001013754282
300.001016176388
300.001021135227
300.00103153265
300.001053805105
300.001101743921
300.001202843424
300.001404834595
300.001791079997
300.000710593755
300.000557026874
300.000476186809
300.000435050949
300.000415265288
300.00040601446
300.000401716443
300.000399694852
300.000398724003
300.000398249457
300.000398015841
300.000397901471
300.000397846443
300.000397820688
300.000397809095
300.000397804164
300.000397802257
300.000397801693
300.000397801649
300.000397801742
300.000397801862
300.000397801971
300.000397802059
300.000397802127
300.00039780217
300.000397802193
300.000397802189
300.000397802149
300.000397802076
300.000397801968
300.000397801841
300.000397801748
300.000397801848
300.000397802515
300.000397804511
300.000397809527
300.000397821195
300.000397847026
300.000397902172
300.000398016564
300.000398249185
300.000398718136
300.000399668478
300.000401632851
300.000405811807
300.000414926016
300.000434937524
300.000478040802
300.000566054028
300.000738376972
300.0002822642
300.000217003622
300.000183229076
300.000166319046
300.000158315712
300.000154633699
300.000152950437
300.000152170501
300.000151800377
300.000151620809
300.00015153268
300.000151489524
300.000151468712
300.000151458943
300.000151454536
300.000151452661
300.000151451942
300.000151451737
300.000151451729
300.000151451772
300.000151451825
300.000151451873
300.000151451911
300.000151451941
300.00015145196
300.000151451969
300.000151451968
300.000151451951
300.00015145192
300.000151451875
300.000151451821
300.000151451781
300.000151451815
300.000151452067
300.000151452836
300.000151454773
300.000151459266
300.000151469171
300.00015149021
300.000151533655
300.000151621716
300.000151799152
300.000152160062
300.000152912759
300.000154536457
300.000158139709
300.000166204419
300.000183929746
300.000220875822
300.000294795484
300.000108756562
300.000082018565
300.000068386443
300.000061661885
300.000058526661
300.000057106091
300.000056466625
300.000056174619
300.000056037665
300.00005597171
300.000055939435
300.000055923622
300.000055915977
300.000055912377
300.000055910747
300.000055910053
300.000055909788
300.000055909714
300.000055909713
300.000055909731
300.000055909753
300.000055909773
300.000055909788
300.0000559098
300.000055909808
300.000055909812
300.000055909811
300.000055909804
300.000055909792
300.000055909774
300.000055909753
300.000055909737
300.000055909749
300.000055909843
300.000055910133
300.000055910863
300.000055912549
300.000055916247
300.000055924059
300.000055940107
300.000055972506
300.000056037703
300.000056170702
300.000056450372
300.000057061726
300.000058441265
300.000061586445
300.000068633937
300.000083611947
300.000114180895
300.00004071277
300.000030125664
300.000024798549
300.000022206199
300.000021014269
300.000020481885
300.000020245729
300.000020139399
300.000020090099
300.000020066529
300.000020055027
300.000020049386
300.00002004665
300.000020045357
300.000020044768
300.000020044516
300.00002004442
300.000020044392
300.000020044391
300.000020044398
300.000020044405
300.000020044412
300.000020044418
300.000020044422
300.000020044425
300.000020044426
300.000020044426
300.000020044423
300.000020044419
300.000020044412
300.000020044405
300.000020044399
300.000020044405
300.00002004444
300.000020044548
300.000020044818
300.000020045437
300.000020046785
300.000020049615
300.000020055393
300.000020067005
300.000020090323
300.00002013799
300.000020238976
300.000020462521
300.000020975095
300.000022164589
300.000024879454
300.000030756384
300.000042972877
300.00001483009
300.000010770006
300.000008750638
300.000007780034
300.000007339463
300.000007145295
300.000007060353
300.00000702262
300.000007005319
300.000006997105
300.000006993105
300.000006991141
300.000006990184
300.000006989728
300.000006989519
300.000006989428
300.000006989392
300.00000698938
300.000006989378
300.000006989379
300.000006989381
300.000006989383
300.000006989384
300.000006989385
300.000006989386
300.000006989386
300.000006989386
300.000006989385
300.000006989384
300.000006989382
300.00000698938
300.000006989379
300.000006989382
300.000006989397
300.000006989437
300.000006989536
300.00000698976
300.000006990242
300.000006991245
300.000006993278
300.000006997342
300.000007005477
300.000007022127
300.000007057635
300.000007137169
300.000007322341
300.000007759406
300.000008774599
300.000011010755
300.00001573893
300.00000526402
300.000003753078
300.000003009239
300.000002655719
300.000002497136
300.000002428109
300.000002398301
300.000002385228
300.000002379296
300.000002376497
300.000002375135
300.000002374464
300.000002374134
300.000002373975
300.0000023739
300.000002373866
300.000002373852
300.000002373846
300.000002373843
300.000002373842
300.000002373841
300.000002373841
300.000002373841
300.00000237384
300.00000237384
300.00000237384
300.00000237384
300.00000237384
300.00000237384
300.00000237384
300.00000237384
300.000002373841
300.000002373843
300.00000237385
300.000002373866
300.000002373903
300.000002373984
300.000002374155
300.000002374505
300.000002375207
300.000002376599
300.000002379375
300.000002385054
300.000002397234
300.000002424815
300.000002489963
300.000002646243
300.000003015348
300.000003841883
300.00000561756
300.000001823273
300.000001276664
300.000001010024
300.000000884597
300.000000828937
300.000000804985
300.000000794765
300.000000790333
300.000000788341
300.000000787404
300.000000786948
300.000000786721
300.000000786607
300.00000078655
300.000000786522
300.000000786507
300.0000007865
300.000000786496
300.000000786493
300.000000786491
300.000000786489
300.000000786488
300.000000786487
300.000000786487
300.000000786486
300.000000786486
300.000000786486
300.000000786486
300.000000786486
300.000000786487
300.000000786488
300.000000786489
300.000000786492
300.000000786496
300.000000786503
300.000000786519
300.000000786549
300.00000078661
300.000000786732
300.000000786972
300.000000787442
300.000000788371
300.000000790268
300.000000794352
300.000000803689
300.000000826043
300.000000880495
300.000001011157
300.00000130838
300.000001956591
300.000000617119
300.000000424588
300.000000331468
300.000000288083
300.000000269019
300.000000260898
300.000000257468
300.000000255995
300.000000255336
300.000000255026
300.000000254873
300.000000254794
300.000000254753
300.000000254731
300.000000254718
300.000000254711
300.000000254706
300.000000254702
300.000000254699
300.000000254697
300.000000254695
300.000000254693
300.000000254692
300.000000254691
300.000000254691
300.00000025469
300.00000025469
300.000000254691
300.000000254691
300.000000254692
300.000000254693
300.000000254695
300.000000254697
300.0000002547
300.000000254705
300.000000254713
300.000000254726
300.000000254749
300.000000254793
300.000000254876
300.000000255034
300.000000255342
300.000000255965
300.000000257307
300.000000260399
300.000000267888
300.000000286392
300.000000331468
300.000000435573
300.000000665945
300.00000020448
300.000000138366
300.000000106672
300.000000092046
300.000000085676
300.000000082985
300.000000081857
300.000000081374
300.000000081157
300.000000081052
300.000000080999
300.000000080969
300.000000080952
300.000000080941
300.000000080934
300.000000080928
300.000000080924
300.000000080921
300.000000080918
300.000000080915
300.000000080913
300.000000080911
300.00000008091
300.000000080909
300.000000080909
300.000000080908
300.000000080908
300.000000080909
300.000000080909
300.00000008091
300.000000080912
300.000000080913
300.000000080916
300.000000080918
300.000000080922
300.000000080927
300.000000080934
300.000000080945
300.000000080963
300.000000080994
300.000000081049
300.000000081152
300.000000081356
300.000000081791
300.000000082794
300.000000085245
300.000000091377
300.000000106528
300.000000142062
300.000000221876
300.000000066538
300.000000044385
300.000000033891
300.000000029104
300.000000027036
300.000000026166
300.0000000258
300.000000025642
300.000000025568
300.00000002553
300.000000025508
300.000000025495
300.000000025485
300.000000025478
300.000000025472
300.000000025468
300.000000025464
300.00000002546
300.000000025457
300.000000025455
300.000000025453
300.000000025451
300.00000002545
300.000000025449
300.000000025448
300.000000025448
300.000000025448
300.000000025448
300.000000025449
300.00000002545
300.000000025451
300.000000025453
300.000000025455
300.000000025458
300.000000025461
300.000000025465
300.00000002547
300.000000025477
300.000000025487
300.0000000255
300.000000025522
300.000000025559
300.000000025628
300.000000025769
300.00000002609
300.000000026873
300.000000028847
300.000000033793
300.000000045594
300.000000072576
300.000000021427
300.000000014187
300.000000010835
300.000000009337
300.000000008695
300.000000008422
300.000000008304
300.00000000825
300.000000008222
300.000000008205
300.000000008194
300.000000008185
300.000000008178
300.000000008172
300.000000008167
300.000000008162
300.000000008158
300.000000008155
300.000000008152
300.00000000815
300.000000008147
300.000000008146
300.000000008144
300.000000008143
300.000000008143
300.000000008142
300.000000008142
300.000000008143
300.000000008143
300.000000008144
300.000000008146
300.000000008148
300.00000000815
300.000000008153
300.000000008156
300.00000000816
300.000000008164
300.00000000817
300.000000008176
300.000000008184
300.000000008196
300.000000008212
300.000000008238
300.000000008286
300.000000008388
300.000000008632
300.000000009241
300.000000010786
300.000000014572
300.000000023471
300.000000006981
300.000000004681
300.000000003682
300.000000003259
300.000000003079
300.000000002998
300.00000000296
300.000000002938
300.000000002924
300.000000002914
300.000000002905
300.000000002898
300.000000002892
300.000000002886
300.000000002881
300.000000002877
300.000000002873
300.00000000287
300.000000002867
300.000000002864
300.000000002862
300.000000002861
300.000000002859
300.000000002858
300.000000002858
300.000000002857
300.000000002857
300.000000002858
300.000000002858
300.000000002859
300.000000002861
300.000000002863
300.000000002865
300.000000002868
300.000000002871
300.000000002874
300.000000002879
300.000000002884
300.000000002889
300.000000002896
300.000000002904
300.000000002914
300.000000002926
300.000000002946
300.00000000298
300.000000003052
300.000000003223
300.000000003661
300.0000000048
300.000000007655
300.000000002447
300.000000001748
300.000000001507
300.000000001428
300.000000001394
300.000000001374
300.00000000136
300.000000001348
300.000000001339
300.00000000133
300.000000001323
300.000000001316
300.00000000131
300.000000001304
300.000000001299
300.000000001295
300.000000001291
300.000000001288
300.000000001285
300.000000001283
300.000000001281
300.000000001279
300.000000001278
300.000000001277
300.000000001276
300.000000001276
300.000000001276
300.000000001276
300.000000001277
300.000000001278
300.000000001279
300.000000001281
300.000000001283
300.000000001286
300.000000001289
300.000000001293
300.000000001297
300.000000001302
300.000000001307
300.000000001313
300.00000000132
300.000000001328
300.000000001337
300.000000001348
300.000000001361
300.00000000138
300.000000001413
300.000000001499
300.000000001784
300.000000002663
300.000000001052
300.000000000861
300.000000000859
300.000000000887
300.000000000899
300.000000000897
300.00000000089
300.000000000881
300.000000000873
300.000000000865
300.000000000858
300.000000000851
300.000000000845
300.00000000084
300.000000000835
300.000000000831
300.000000000827
300.000000000824
300.000000000821
300.000000000818
300.000000000816
300.000000000815
300.000000000814
300.000000000813
300.000000000812
300.000000000812
300.000000000812
300.000000000812
300.000000000813
300.000000000814
300.000000000815
300.000000000817
300.000000000819
300.000000000822
300.000000000825
300.000000000828
300.000000000832
300.000000000837
300.000000000842
300.000000000848
300.000000000855
300.000000000862
300.00000000087
300.000000000879
300.000000000886
300.00000000089
300.000000000881
300.000000000856
300.000000000872
300.000000001118
300.000000000632
300.000000000599
300.00000000067
300.000000000731
300.000000000757
300.00000000076
300.000000000754
300.000000000746
300.000000000738
300.00000000073
300.000000000723
300.000000000716
300.00000000071
300.000000000705
300.0000000007
300.000000000696
300.000000000693
300.000000000689
300.000000000687
300.000000000684
300.000000000682
300.000000000681
300.000000000679
300.000000000678
300.000000000678
300.000000000678
300.000000000678
300.000000000678
300.000000000679
300.00000000068
300.000000000681
300.000000000683
300.000000000685
300.000000000687
300.00000000069
300.000000000694
300.000000000698
300.000000000703
300.000000000708
300.000000000714
300.000000000721
300.000000000728
300.000000000736
300.000000000744
300.00000000075
300.000000000749
300.000000000728
300.00000000067
300.000000000602
300.000000000651
300.000000000509
300.000000000525
300.000000000618
300.000000000688
300.000000000717
300.000000000721
300.000000000716
300.000000000708
300.000000000699
300.000000000691
300.000000000684
300.000000000677
300.000000000671
300.000000000666
300.000000000662
300.000000000657
300.000000000654
300.000000000651
300.000000000648
300.000000000646
300.000000000644
300.000000000642
300.000000000641
300.00000000064
300.000000000639
300.000000000639
300.000000000639
300.00000000064
300.00000000064
300.000000000641
300.000000000643
300.000000000644
300.000000000646
300.000000000649
300.000000000652
300.000000000655
300.000000000659
300.000000000664
300.000000000669
300.000000000675
300.000000000682
300.000000000689
300.000000000697
300.000000000705
300.000000000711
300.00000000071
300.000000000686
300.000000000619
300.000000000526
300.000000000513
300.000000000477
300.000000000507
300.000000000606
300.000000000678
300.000000000706
300.00000000071
300.000000000705
300.000000000696
300.000000000688
300.000000000679
300.000000000672
300.000000000665
300.00000000066
300.000000000654
300.00000000065
300.000000000646
300.000000000642
300.000000000639
300.000000000636
300.000000000634
300.000000000632
300.000000000631
300.00000000063
300.000000000629
300.000000000628
300.000000000628
300.000000000628
300.000000000628
300.000000000629
300.00000000063
300.000000000631
300.000000000633
300.000000000635
300.000000000637
300.00000000064
300.000000000644
300.000000000648
300.000000000652
300.000000000658
300.000000000664
300.00000000067
300.000000000678
300.000000000686
300.000000000694
300.000000000701
300.0000000007
300.000000000676
300.000000000607
300.000000000508
300.000000000476
300.000000000471
300.000000000505
300.000000000605
300.000000000677
300.000000000704
300.000000000707
300.000000000701
300.000000000692
300.000000000683
300.000000000675
300.000000000667
300.000000000661
300.000000000655
300.00000000065
300.000000000645
300.000000000641
300.000000000638
300.000000000635
300.000000000632
300.00000000063
300.000000000629
300.000000000627
300.000000000626
300.000000000625
300.000000000624
300.000000000624
300.000000000624
300.000000000625
300.000000000625
300.000000000626
300.000000000627
300.000000000629
300.000000000631
300.000000000633
300.000000000636
300.00000000064
300.000000000644
300.000000000648
300.000000000653
300.000000000659
300.000000000666
300.000000000674
300.000000000682
300.000000000691
300.000000000698
300.000000000698
300.000000000675
300.000000000607
300.000000000506
300.000000000469
300.000000000474
300.000000000509
300.000000000609
300.000000000678
300.000000000704
300.000000000706
300.000000000699
300.00000000069
300.000000000681
300.000000000672
300.000000000665
300.000000000658
300.000000000652
300.000000000647
300.000000000643
300.000000000639
300.000000000636
300.000000000633
300.00000000063
300.000000000628
300.000000000627
300.000000000625
300.000000000624
300.000000000623
300.000000000623
300.000000000622
300.000000000622
300.000000000623
300.000000000623
300.000000000624
300.000000000626
300.000000000627
300.000000000629
300.000000000631
300.000000000634
300.000000000637
300.000000000641
300.000000000646
300.000000000651
300.000000000657
300.000000000664
300.000000000672
300.00000000068
300.00000000069
300.000000000698
300.000000000699
300.000000000677
300.000000000611
300.000000000511
300.000000000472
300.00000000048
300.000000000516
300.000000000613
300.000000000681
300.000000000705
300.000000000706
300.000000000698
300.000000000688
300.000000000678
300.00000000067
300.000000000662
300.000000000656
300.00000000065
300.000000000645
300.000000000641
300.000000000637
300.000000000634
300.000000000631
300.000000000629
300.000000000627
300.000000000625
300.000000000624
300.000000000623
300.000000000622
300.000000000621
300.000000000621
300.000000000621
300.000000000621
300.000000000622
300.000000000623
300.000000000624
300.000000000626
300.000000000627
300.00000000063
300.000000000632
300.000000000636