/*--------------------------------*- C++ -*----------------------------------*\
  =========                 |
  \\      /  F ield         | OpenFOAM: The Open Source CFD Toolbox
   \\    /   O peration     | Website:  https://openfoam.org
    \\  /    A nd           | Version:  10
     \\/     M anipulation  |
\*---------------------------------------------------------------------------*/
FoamFile
{
    format      ascii;
    class       volVectorField;
    location    "7.8";
    object      U;
}
// * * * * * * * * * * * * * * * * * * * * * * * * * * * * * * * * * * * * * //

dimensions      [0 1 -1 0 0 0 0];

internalField   nonuniform List<vector> 
2500
(
(-1.29002600497865e-06 -1.67756544330464e-06 2.48126975023781e-25)
(-3.33543067167779e-06 -2.32130517850978e-06 2.69292114923923e-24)
(-3.61676521509896e-06 -2.55177887993563e-06 3.43684326381434e-25)
(-3.03932276897517e-06 -2.65714586261877e-06 1.26408306487882e-26)
(-2.20709035696723e-06 -2.66947860978812e-06 -5.95221166513034e-25)
(-1.52470581783525e-06 -2.65276772495241e-06 -7.70081281460815e-25)
(-1.02320145872456e-06 -2.62996264310442e-06 -2.60392600986877e-25)
(-6.85913274770804e-07 -2.61103362780536e-06 -2.45634263020986e-25)
(-4.60865223475589e-07 -2.59670432293513e-06 -4.62051267919951e-25)
(-3.12826986909201e-07 -2.58671114533093e-06 3.09682542200465e-24)
(-2.14452422865899e-07 -2.5800170114e-06 1.83459907990301e-24)
(-1.48300212799813e-07 -2.57572064247084e-06 4.11059712289597e-24)
(-1.02887672164238e-07 -2.57305514550738e-06 3.65622919292443e-24)
(-7.0909713391901e-08 -2.57144137243986e-06 1.43589268521413e-24)
(-4.77676022853405e-08 -2.57047958370347e-06 3.49651672179789e-24)
(-3.05486329126078e-08 -2.56990523907681e-06 1.00194600467787e-24)
(-1.7417477762085e-08 -2.56956179834687e-06 3.83485458001238e-24)
(-7.18400852407635e-09 -2.56934752118033e-06 3.57477162860085e-24)
(9.49026337615589e-10 -2.56921751824888e-06 7.57734037417663e-25)
(7.51855362105773e-09 -2.56913519779892e-06 2.70625124323725e-24)
(1.29114159461097e-08 -2.5690779765988e-06 9.52359167609372e-26)
(1.74199482287878e-08 -2.56904546556221e-06 -2.52530679575547e-25)
(2.12683892669747e-08 -2.56902739727211e-06 3.38843376129895e-24)
(2.46376354786234e-08 -2.56902264915006e-06 3.95374860179081e-25)
(2.76872499444899e-08 -2.56901999451112e-06 -1.24218503109724e-25)
(3.05655369505356e-08 -2.56902560374049e-06 3.07554828703969e-24)
(3.34109464725074e-08 -2.56904608122898e-06 1.15390846317445e-25)
(3.63663477826349e-08 -2.56907254793542e-06 1.10367415346773e-24)
(3.95899582856653e-08 -2.56911067615768e-06 3.42867544156325e-24)
(4.32625111014339e-08 -2.56916506023377e-06 -1.25127970918583e-25)
(4.76096154840618e-08 -2.56923304078704e-06 2.64434279037518e-25)
(5.29126116646932e-08 -2.56934454305438e-06 -3.68965505419876e-25)
(5.95531175519432e-08 -2.56949385783951e-06 8.3662744093306e-25)
(6.80706333001329e-08 -2.56973031547793e-06 8.39465504169807e-25)
(7.92548461490007e-08 -2.57010275007895e-06 -6.53704398650558e-26)
(9.43040448048924e-08 -2.57070666576543e-06 2.77700543548052e-24)
(1.15063097063634e-07 -2.57169927988652e-06 -2.78773185803362e-24)
(1.44454575513789e-07 -2.57333753840233e-06 -3.08315705004912e-25)
(1.87072047241846e-07 -2.57601966885764e-06 1.36256721371843e-26)
(2.50213480151537e-07 -2.5803200490569e-06 -1.93640895313016e-24)
(3.4534682714728e-07 -2.58697668729931e-06 -5.46496996954534e-24)
(4.89922897853875e-07 -2.59689762482083e-06 -4.89327735634815e-24)
(7.11328041911746e-07 -2.61114697381978e-06 -2.72320434095853e-24)
(1.0453323407008e-06 -2.63011006128941e-06 -4.7324741095797e-24)
(1.54522291685114e-06 -2.65330779942407e-06 -5.01215181000487e-24)
(2.2311391629018e-06 -2.67101395199552e-06 -2.87929639827122e-24)
(3.07508586140784e-06 -2.65969097328486e-06 -4.82567782871472e-24)
(3.66928885266354e-06 -2.55287689413829e-06 -4.83909915631103e-24)
(3.37737104764721e-06 -2.31638503702785e-06 -2.29883714932794e-24)
(1.29724462255105e-06 -1.6751542968515e-06 -3.03972554762462e-24)
(-1.76844621407169e-06 -1.91858130248626e-06 -3.66615772980468e-28)
(-5.80685147297408e-06 -3.48805277880553e-06 -1.73537042082383e-25)
(-6.55993629243374e-06 -4.7785180220962e-06 1.47012396114268e-25)
(-5.68632394725172e-06 -5.36612826425326e-06 -2.29177512833707e-25)
(-4.24079242842715e-06 -5.41801925734048e-06 -2.35524335521471e-24)
(-3.00324528836509e-06 -5.26892838435975e-06 -2.45473681595471e-24)
(-2.06821935901823e-06 -5.09755890470749e-06 -7.9123387462234e-25)
(-1.42447193019064e-06 -4.96021229136131e-06 -8.23971443490357e-25)
(-9.86435503176334e-07 -4.86265651150655e-06 -2.37942904946884e-24)
(-6.91662412392281e-07 -4.79693712457497e-06 2.77577853993518e-25)
(-4.90731125614347e-07 -4.75391572870536e-06 3.56370279039504e-24)
(-3.51462102943654e-07 -4.72618600294135e-06 3.34732612792683e-24)
(-2.52589058809776e-07 -4.70844647026404e-06 1.52633093714067e-24)
(-1.80464040375487e-07 -4.69707157656544e-06 2.45784791775984e-24)
(-1.26411643476649e-07 -4.68968499414465e-06 8.1673751430608e-25)
(-8.48536000088569e-08 -4.68478949893376e-06 1.05748040162863e-24)
(-5.21842970241743e-08 -4.68145307977806e-06 2.42062344761073e-24)
(-2.60090822233081e-08 -4.67910241388956e-06 1.16015050738599e-24)
(-4.68195605076504e-09 -4.67741639865881e-06 4.38486504410738e-25)
(1.29618326826952e-08 -4.67617635831593e-06 -2.38265630942997e-25)
(2.77714489317489e-08 -4.67525157336455e-06 -6.28949450000143e-25)
(4.04112970360264e-08 -4.67457085841486e-06 -1.77535292395504e-24)
(5.14116384818335e-08 -4.67408337142298e-06 1.47096426076816e-24)
(6.12133681823651e-08 -4.67374911718621e-06 1.72034783755499e-25)
(7.02035292051349e-08 -4.6735577614261e-06 -1.38638647169065e-24)
(7.8735279554924e-08 -4.67349422177841e-06 1.00167997452665e-24)
(8.7164497109074e-08 -4.67357155614185e-06 -7.10783805570565e-25)
(9.5847358839131e-08 -4.67377927860684e-06 2.51434231567359e-24)
(1.0516476535535e-07 -4.67415204470766e-06 1.90895918180799e-24)
(1.15558209343171e-07 -4.674714121238e-06 -1.22775310579774e-24)
(1.27540672048124e-07 -4.67551399717016e-06 8.49528633181131e-25)
(1.41769322370389e-07 -4.67663650986924e-06 -1.12043000258647e-24)
(1.59089776469608e-07 -4.67820165439643e-06 2.48507162826251e-24)
(1.80645237358651e-07 -4.68042575502753e-06 2.40663674073415e-24)
(2.08085272260301e-07 -4.68365548816525e-06 -1.05646837923037e-24)
(2.43815227623567e-07 -4.68845360458099e-06 8.19315043051192e-25)
(2.91451944847358e-07 -4.69574898180916e-06 -1.28185659811924e-24)
(3.56587856490884e-07 -4.70703482573277e-06 -1.5560457706668e-25)
(4.4789882464167e-07 -4.72466880975203e-06 6.77859433689487e-25)
(5.79058788994215e-07 -4.75227384380365e-06 -4.1027367348646e-24)
(7.7131964179379e-07 -4.79511140799352e-06 -5.0851910583951e-24)
(1.05693972366814e-06 -4.86063051481275e-06 -5.06204004082088e-24)
(1.48550261594603e-06 -4.95819480392549e-06 -5.75549524589137e-24)
(2.12052761337421e-06 -5.09644148254824e-06 -4.95219071320833e-24)
(3.05016282656688e-06 -5.27096220618548e-06 -5.32161064407206e-24)
(4.29217742303926e-06 -5.42660111527318e-06 -6.07009533859168e-24)
(5.75823833154772e-06 -5.38090339637866e-06 -5.13441833540481e-24)
(6.66381390989379e-06 -4.78349871198738e-06 -4.9959762077115e-24)
(5.89678634867576e-06 -3.46181404305688e-06 -4.5794537467184e-24)
(1.78766551419008e-06 -1.89187713487712e-06 -2.3975470216961e-24)
(-1.12849160641906e-06 8.99848658189942e-07 -4.23326956330744e-25)
(-5.43137813282909e-06 -9.51499827433181e-07 -3.50045793698229e-24)
(-6.38773432021811e-06 -3.37655928695809e-06 -2.85828462038436e-25)
(-5.76421671858247e-06 -4.49992328783661e-06 -4.83158102168547e-25)
(-4.4527124362606e-06 -4.60891686574623e-06 -4.24750260536491e-24)
(-3.27020621318895e-06 -4.31437476928968e-06 -4.33258389432201e-24)
(-2.3380856692935e-06 -3.97446987686609e-06 -1.06093615889938e-24)
(-1.67398810840205e-06 -3.70144986922328e-06 -1.15946958360099e-24)
(-1.20638629461534e-06 -3.50862928925055e-06 -4.68512975493984e-24)
(-8.80260225228816e-07 -3.37927780435928e-06 -3.15610416449397e-24)
(-6.49427624906795e-07 -3.2945769561719e-06 4.61979310502995e-24)
(-4.83055037434053e-07 -3.2395268258572e-06 1.79773771548963e-24)
(-3.60306234928248e-07 -3.20367751977241e-06 -1.79898497766212e-24)
(-2.67471462785863e-07 -3.18005698721807e-06 3.17084481867998e-24)
(-1.95609892534878e-07 -3.16419088214316e-06 -2.53450503778674e-24)
(-1.38780602764316e-07 -3.15327156925743e-06 3.37710504316945e-25)
(-9.29949853907505e-08 -3.1455348090551e-06 5.11430227350834e-25)
(-5.55141510025477e-08 -3.13991882334324e-06 -2.17530390059322e-24)
(-2.43845318736775e-08 -3.13574671118226e-06 -4.44992896186075e-25)
(1.83045493679704e-09 -3.13260016539756e-06 -3.54358198475205e-24)
(2.42126148046206e-08 -3.13021399518808e-06 -1.39009929924354e-24)
(4.36251283581163e-08 -3.12841486249609e-06 -3.82452993340299e-24)
(6.07791010173848e-08 -3.12710158969134e-06 -4.30846020605117e-25)
(7.62697076436821e-08 -3.12618465880339e-06 -3.21491621096356e-25)
(9.06341829472426e-08 -3.12564318692778e-06 -3.31281573146445e-24)
(1.04371360741538e-07 -3.12544475045732e-06 -9.0276721142584e-25)
(1.17972016675487e-07 -3.12558342008696e-06 -2.44478958449371e-24)
(1.31929730405142e-07 -3.12609242042723e-06 3.87192609683285e-24)
(1.46771689998002e-07 -3.12700350434537e-06 3.59193249265829e-25)
(1.63099920079492e-07 -3.1283859711948e-06 -2.99852736664532e-24)
(1.81607442080658e-07 -3.13036321967301e-06 1.99461310744672e-24)
(2.03143572446486e-07 -3.13308934682399e-06 -2.40801313343821e-24)
(2.28783037619485e-07 -3.13684133208912e-06 4.2141341810811e-24)
(2.59942216526243e-07 -3.14203664841308e-06 4.05293441417918e-24)
(2.98570555451949e-07 -3.14935141673464e-06 -2.82574123266053e-24)
(3.47419777130037e-07 -3.15987681388862e-06 -7.73807399579517e-25)
(4.10477369441327e-07 -3.17536564486023e-06 -5.60624784313994e-26)
(4.93699066205666e-07 -3.1986273667634e-06 2.98493068375679e-25)
(6.06035496661051e-07 -3.2341274432116e-06 2.29729080082027e-24)
(7.6123910488154e-07 -3.28884058572613e-06 -5.64956880879091e-24)
(9.80156642358159e-07 -3.37321826893106e-06 -3.54536126713597e-24)
(1.29378356978385e-06 -3.50235476388475e-06 -3.6684703553893e-24)
(1.74853892957168e-06 -3.69552474638598e-06 -7.44466414031816e-24)
(2.40064947391064e-06 -3.9707180049634e-06 -3.73222829785041e-24)
(3.32430061918105e-06 -4.31723846766697e-06 -4.00432445657257e-24)
(4.50869092642588e-06 -4.62501427499804e-06 -7.8458048797349e-24)
(5.83988102694372e-06 -4.52892539801312e-06 -3.88883878464691e-24)
(6.49907862084733e-06 -3.38847976020883e-06 -3.5885766058875e-24)
(5.54124487981201e-06 -9.04232913139045e-07 -6.65115670486668e-24)
(1.16082453530067e-06 9.64075226238723e-07 -1.62035400984879e-24)
(-4.14648250923211e-07 3.62843160055347e-06 -4.36788848300081e-25)
(-3.66036072729908e-06 2.03246803508273e-06 -3.8590245607484e-24)
(-4.61199435671293e-06 -1.34770436074072e-06 -2.28579761554189e-25)
(-4.45706630749965e-06 -2.99411721463136e-06 -1.52193790407721e-25)
(-3.65352506644288e-06 -3.24117092139887e-06 -1.81160910666803e-24)
(-2.84690998704195e-06 -2.8891168833031e-06 -2.42955088973747e-24)
(-2.15480361137139e-06 -2.44782122565391e-06 -6.79738615689203e-25)
(-1.62920995380704e-06 -2.08233083867683e-06 -7.67487147228615e-25)
(-1.23575655614116e-06 -1.81989383316511e-06 -2.9874047366912e-24)
(-9.45052869809355e-07 -1.64114429255101e-06 -3.53957169664922e-24)
(-7.27734041002271e-07 -1.52214115429485e-06 2.63172342828602e-24)
(-5.63028911078607e-07 -1.44320804930841e-06 5.50419333393267e-26)
(-4.36007047415313e-07 -1.39053102031882e-06 -2.67951808433174e-24)
(-3.36255485316569e-07 -1.35486189055958e-06 1.29833035721806e-24)
(-2.56606307959978e-07 -1.33021251042058e-06 -3.10205965097479e-24)
(-1.91995424136189e-07 -1.3127570523858e-06 -5.75331842213458e-27)
(-1.38838814611318e-07 -1.30008058972806e-06 -1.40381267441627e-24)
(-9.4535226653735e-08 -1.29067046732631e-06 -2.69117938873793e-24)
(-5.71436772332504e-08 -1.28355286349641e-06 -4.91539053946734e-25)
(-2.51910253608774e-08 -1.27811014088064e-06 -3.67435759582933e-24)
(2.47838982539916e-09 -1.27394477870088e-06 -1.08865133377053e-24)
(2.6803641481149e-08 -1.27077526337133e-06 -2.3083111136625e-24)
(4.85798525131762e-08 -1.26844047314526e-06 -2.00259912804253e-24)
(6.8484941177274e-08 -1.26680949189772e-06 -2.7767174696822e-25)
(8.71315456122069e-08 -1.26582256352856e-06 -1.83432675691384e-24)
(1.05102413049387e-07 -1.26544848185701e-06 -1.78003673208825e-24)
(1.22954827858535e-07 -1.26568228641417e-06 -1.24012908385731e-24)
(1.41264509236285e-07 -1.2665626874273e-06 2.00549026690424e-24)
(1.60645141926685e-07 -1.26814197051317e-06 -1.53362203899475e-24)
(1.81765453818345e-07 -1.27054566527947e-06 -1.86005189774471e-24)
(2.05402173439306e-07 -1.2739461548658e-06 6.97794827850295e-25)
(2.32489437848767e-07 -1.27861409301836e-06 -1.32691634433002e-24)
(2.64168833434955e-07 -1.28493215330952e-06 2.46359792822784e-24)
(3.01903683061344e-07 -1.29354805224054e-06 2.37441379734038e-24)
(3.47620774528813e-07 -1.30543186422832e-06 -1.64232340195501e-24)
(4.03914506299454e-07 -1.32211912013298e-06 -1.71607277572723e-24)
(4.74371641395181e-07 -1.3460162398104e-06 1.56570485206298e-24)
(5.64053896458182e-07 -1.38095436431965e-06 3.80553664446976e-25)
(6.80135335982393e-07 -1.43291922612468e-06 8.99652277070881e-25)
(8.33079118957197e-07 -1.51119004330271e-06 -3.87505454918955e-24)
(1.03783761478017e-06 -1.62961786708645e-06 -6.65418517557422e-25)
(1.31537416727121e-06 -1.80806598924611e-06 -6.86816065236672e-25)
(1.69528007749417e-06 -2.07114625208476e-06 -4.79476190461745e-24)
(2.20794336465402e-06 -2.44006627229235e-06 -8.41931277672777e-25)
(2.88978648341418e-06 -2.89135829321979e-06 -1.00820036501938e-24)
(3.69450079601995e-06 -3.26334931688592e-06 -5.21605111817917e-24)
(4.5119033280277e-06 -3.03713321433595e-06 -8.89892027103713e-25)
(4.69840092543079e-06 -1.37125394033583e-06 -5.04139253488133e-25)
(3.7611944191567e-06 2.09177275902038e-06 -4.57576777421397e-24)
(4.53606117035233e-07 3.72310145427659e-06 4.89311028190289e-26)
(1.13548685775489e-07 5.58393321975688e-06 -1.57364502999902e-26)
(-1.63006238137302e-06 4.46693121312921e-06 -1.44694596558311e-24)
(-2.46435948565016e-06 5.08678749819142e-07 3.20485149143021e-25)
(-2.7576178602362e-06 -1.55958646203336e-06 3.37749865350578e-25)
(-2.5284040025991e-06 -2.00465544516822e-06 7.74790829633185e-25)
(-2.17123391284838e-06 -1.69778748691324e-06 -9.69614902724182e-25)
(-1.78457584683156e-06 -1.24132152910149e-06 -1.36817087198639e-25)
(-1.44718664602801e-06 -8.42285177131569e-07 -1.63424303538033e-25)
(-1.1645480643483e-06 -5.46420924253752e-07 -1.30549411358295e-24)
(-9.35980368496273e-07 -3.3926789943114e-07 -1.3139079185974e-24)
(-7.51923603405841e-07 -1.97634931578396e-07 1.87723189730464e-24)
(-6.03729357909573e-07 -1.01065582524912e-07 5.98458587179417e-25)
(-4.83819636051371e-07 -3.4781904325335e-08 -6.69846805504111e-25)
(-3.86042929033052e-07 1.13692068382651e-08 9.78295934028648e-25)
(-3.0564737900878e-07 4.41155105622593e-08 -1.0004213346788e-24)
(-2.38917351440016e-07 6.78606792193679e-08 4.51932175250418e-25)
(-1.82993608833966e-07 8.54487435765217e-08 7.52766789074147e-26)
(-1.356573601246e-07 9.87262941401715e-08 -4.87633003460814e-25)
(-9.5165348266275e-08 1.08891616894743e-07 3.05332912297553e-25)
(-6.01322870036449e-08 1.16738754052245e-07 -1.18194982195093e-24)
(-2.94272785259069e-08 1.22789999878109e-07 -1.65784978881845e-25)
(-2.11604846597983e-09 1.27409366898928e-07 -8.38281525334678e-25)
(2.2606544763143e-08 1.30835548124118e-07 -3.99142070196368e-25)
(4.54442691908138e-08 1.33217207438027e-07 2.36517038411478e-25)
(6.70330231447113e-08 1.346567902316e-07 -5.54632057589168e-25)
(8.79819448212022e-08 1.35192285502124e-07 -5.38390092777822e-25)
(1.08883444881176e-07 1.34827604484784e-07 -3.66926365744007e-25)
(1.30342484867213e-07 1.33522038149306e-07 1.12971447987434e-24)
(1.52988513527264e-07 1.31179540004512e-07 -4.31743893697331e-25)
(1.7752013981617e-07 1.27649445629484e-07 -9.50116230438075e-25)
(2.04728147845109e-07 1.2269099029003e-07 2.26155900317195e-25)
(2.35543332823435e-07 1.15961148925211e-07 -8.87440191371583e-25)
(2.71073283245355e-07 1.06930427644185e-07 1.18641948535967e-24)
(3.1268864520976e-07 9.48050289910155e-08 1.21769298626802e-24)
(3.62125372559633e-07 7.83592343630991e-08 -8.27303749195645e-25)
(4.21589487379165e-07 5.57479861861684e-08 -8.4213814197077e-25)
(4.93921766538065e-07 2.41162341509842e-08 5.30569041642713e-25)
(5.82827117061483e-07 -2.09260013517846e-08 1.21890108904943e-25)
(6.93046794390286e-07 -8.6116642106001e-08 1.68534269348484e-25)
(8.30762043020759e-07 -1.81650457909388e-07 -3.33328277903204e-24)
(1.00355301806366e-06 -3.22388293365822e-07 -9.11745515701943e-25)
(1.22022368015539e-06 -5.2904243467875e-07 -8.61629881234998e-25)
(1.49042500648875e-06 -8.25661604976137e-07 -3.46619975334467e-24)
(1.81547181668639e-06 -1.22899535270639e-06 -9.68890670689939e-25)
(2.19106359991474e-06 -1.69799404853736e-06 -1.08719649985829e-24)
(2.54246602391816e-06 -2.03028256668781e-06 -3.84196491727547e-24)
(2.7778176005912e-06 -1.61368542667554e-06 -1.04271546571162e-24)
(2.5075186884671e-06 4.71520450291533e-07 -8.7947153449783e-25)
(1.69879094870447e-06 4.52838143360067e-06 -4.06691612388999e-24)
(-7.89450881187942e-08 5.69773765542185e-06 -2.76762206112849e-25)
(4.04376812539811e-07 6.59914844172152e-06 3.51663194112089e-25)
(5.77501206786636e-09 5.98403166427111e-06 -1.51707820571203e-25)
(-6.70831473482717e-07 1.85156435786662e-06 7.66386413067367e-25)
(-1.26481905063209e-06 -4.81945764491733e-07 5.06306193999204e-25)
(-1.49174142134148e-06 -1.12504341964984e-06 8.88502382830003e-26)
(-1.50847203755995e-06 -9.23288562049895e-07 -4.02257202866107e-25)
(-1.38923973235194e-06 -5.11207613967381e-07 2.41356841554646e-25)
(-1.22438194578104e-06 -1.22943873189514e-07 2.75301342701149e-25)
(-1.04920750770082e-06 1.77371859063633e-07 -3.54066891253531e-25)
(-8.85344674848755e-07 3.94963828113953e-07 -1.87923503873939e-25)
(-7.39628909002207e-07 5.48458311316487e-07 1.71607357067144e-24)
(-6.13730592909737e-07 6.56304997091669e-07 1.12282082211166e-24)
(-5.06551994191434e-07 7.32499250112048e-07 3.29913598641692e-25)
(-4.15825156248607e-07 7.8700385742642e-07 1.26556949543703e-24)
(-3.39124584516943e-07 8.26637488558796e-07 6.50558108350594e-26)
(-2.74095978816888e-07 8.55984234384952e-07 9.05096896340178e-25)
(-2.18681234487306e-07 8.78099733674657e-07 9.71668964761561e-25)
(-1.71125617081583e-07 8.95021414471135e-07 5.84977261517819e-25)
(-1.29955215804911e-07 9.08109192881134e-07 9.76194837628259e-25)
(-9.39442106238252e-08 9.18287238830501e-07 1.10790827262402e-25)
(-6.20570833782242e-08 9.2618522090235e-07 5.68051622322995e-25)
(-3.34095511690196e-08 9.3222655901813e-07 -2.19121939389173e-26)
(-7.23356962417064e-09 9.36710209898912e-07 5.50294953965446e-25)
(1.71595949458134e-08 9.39812711709679e-07 6.57003018623547e-25)
(4.0402133297719e-08 9.41667096739141e-07 7.61431403363889e-26)
(6.30952262592165e-08 9.42322111223963e-07 4.40927585723059e-25)
(8.58244255152106e-08 9.41791083179878e-07 -3.86247117148986e-26)
(1.09185422461893e-07 9.40005495992297e-07 9.44636329494242e-25)
(1.33808639248952e-07 9.36858701365587e-07 1.71112778547843e-25)
(1.60368415377272e-07 9.32161203777897e-07 -5.19795869366081e-25)
(1.8962645484674e-07 9.25622973785214e-07 2.79991732475602e-25)
(2.22455389820552e-07 9.16821237909444e-07 -8.2452794087754e-25)
(2.59871466248767e-07 9.0512725609883e-07 5.83218030372285e-25)
(3.0309144143184e-07 8.89627832008971e-07 6.85033913182537e-25)
(3.53567049154299e-07 8.68940815458483e-07 -6.35870302118496e-25)
(4.13028082616461e-07 8.41020946183811e-07 -1.37376823912787e-25)
(4.83515493138493e-07 8.028118139875e-07 3.5912519079706e-26)
(5.67358551604812e-07 7.49730433125679e-07 -9.92687736816436e-26)
(6.66946834982431e-07 6.74957418124556e-07 2.07060060412755e-25)
(7.84551752850311e-07 5.68477249495782e-07 -1.65171602328478e-24)
(9.21229942019986e-07 4.16192982978437e-07 -7.57680125664465e-25)
(1.07537646539147e-06 1.99371149728075e-07 -7.38379826324883e-25)
(1.24006320649649e-06 -1.01568554531402e-07 -1.78605803946627e-24)
(1.39388724425171e-06 -4.94349106450534e-07 -7.51983346359676e-25)
(1.50188063128279e-06 -9.20241958111728e-07 -8.38146329058033e-25)
(1.47617576772895e-06 -1.15090784610492e-06 -2.1007561469192e-24)
(1.24795593216868e-06 -5.42330676658319e-07 -8.26222684996957e-25)
(6.66928545227035e-07 1.80253035983809e-06 -7.4827458122708e-25)
(1.97481040421495e-08 6.04018941012292e-06 -1.96774070663392e-24)
(-3.82551051219091e-07 6.72030063928657e-06 -1.83408814907011e-25)
(5.08154331740307e-07 6.76113008346254e-06 5.73417342481727e-25)
(1.02040157300152e-06 6.56572752194299e-06 9.30567899095482e-25)
(5.0061583189117e-07 2.57538166095173e-06 9.90498382100901e-25)
(-2.19842070735288e-07 1.28942946887029e-07 5.38887625623693e-25)
(-7.19619284309024e-07 -6.7560144496929e-07 2.72384863943092e-25)
(-9.78586344388501e-07 -5.98881248729666e-07 3.34887354502751e-25)
(-1.04710511830229e-06 -2.6122644741824e-07 4.33026886372553e-25)
(-1.01143193429714e-06 9.02821121605629e-08 4.93936446849374e-25)
(-9.22408569040578e-07 3.76517991048119e-07 5.65742499422224e-25)
(-8.14205641967243e-07 5.92162740704019e-07 7.50715539942502e-25)
(-7.04225315297498e-07 7.49545509047862e-07 1.10788344789406e-24)
(-6.0114098123527e-07 8.63595067165952e-07 1.19845989168977e-24)
(-5.08566393374311e-07 9.46493884730982e-07 1.06059058067334e-24)
(-4.2722054993899e-07 1.00732704482827e-06 9.81617534994e-25)
(-3.5656225763848e-07 1.05255681985679e-06 8.97849527867907e-25)
(-2.95427385024493e-07 1.08668208986545e-06 1.08560401828686e-24)
(-2.4249518632608e-07 1.11278832186216e-06 1.31765533150763e-24)
(-1.96479113808805e-07 1.13300476835087e-06 1.36675363781618e-24)
(-1.56202689495175e-07 1.14878088821302e-06 1.28737013891656e-24)
(-1.20624598495641e-07 1.16112531412468e-06 1.08876428991907e-24)
(-8.88335122900284e-08 1.17073702364698e-06 9.43666277913465e-25)
(-6.00295871837607e-08 1.17810075510434e-06 7.63573785333738e-25)
(-3.3501487502078e-08 1.1835544306628e-06 9.58003360908717e-25)
(-8.59780522027271e-09 1.18732061343238e-06 8.37414323135531e-25)
(1.52833933419787e-08 1.18953968650298e-06 7.73255202592513e-25)
(3.87166749527264e-08 1.19027688552932e-06 8.86712553705198e-25)
(6.22609119052734e-08 1.18953025077561e-06 4.85755823596942e-25)
(8.64879159735121e-08 1.18724481914429e-06 4.55361167145557e-25)
(1.11994387106203e-07 1.18328241898268e-06 4.15460514977502e-25)
(1.39417109594247e-07 1.17742208102984e-06 1.0646260148449e-25)
(1.69459494095209e-07 1.16934029116015e-06 -3.3192453959863e-26)
(2.02908751098952e-07 1.15854131378759e-06 -3.69716196196818e-25)
(2.406621179157e-07 1.14434514928527e-06 -1.46732480655638e-25)
(2.83743813860063e-07 1.12573434451217e-06 -1.90557158573647e-26)
(3.33304529518136e-07 1.10124676684205e-06 4.63044089625709e-26)
(3.90606807455737e-07 1.06875871963165e-06 1.94724795273312e-25)
(4.56936134400915e-07 1.02518456359689e-06 -1.58149600377683e-25)
(5.33426437467933e-07 9.66016320692684e-07 -2.32613413379188e-25)
(6.20568669453077e-07 8.84799961036424e-07 -8.5969853570405e-26)
(7.17609027238681e-07 7.72402251000606e-07 -3.39390977378176e-25)
(8.20851110531835e-07 6.16539789687102e-07 -5.17294688918344e-25)
(9.21588133057405e-07 4.01998823386793e-07 -5.05506185340031e-25)
(1.00215697278028e-06 1.1551559240735e-07 -3.99373488344848e-25)
(1.02826518808579e-06 -2.40189407594295e-07 -4.65506776192183e-25)
(9.4879110411624e-07 -5.91810465424281e-07 -5.05303919348242e-25)
(6.78805163452608e-07 -6.99125802796269e-07 -4.93311634225508e-25)
(1.72113894382128e-07 6.66335571027227e-08 -4.9683811091284e-25)
(-5.43925340243552e-07 2.51751355687509e-06 -3.68875229990724e-25)
(-1.03602281214953e-06 6.61146191305783e-06 -1.99105015664267e-25)
(-5.01522988099452e-07 6.87925636156733e-06 1.52547207534635e-25)
(5.03853080266898e-07 6.34932732258211e-06 5.96648018536755e-25)
(1.46724538118085e-06 6.47636746240704e-06 1.49382422393886e-24)
(1.08586197162556e-06 2.81836771594595e-06 9.54336562820397e-25)
(3.7747215618354e-07 3.76251233137841e-07 4.72829658923505e-25)
(-2.28391837657749e-07 -5.39235840379279e-07 2.74782786695913e-25)
(-6.04771698293086e-07 -5.80039905813142e-07 6.64001291898743e-25)
(-7.81088020100841e-07 -3.24306427417216e-07 4.62218509076572e-25)
(-8.28441608921589e-07 -2.0750327388208e-08 5.17717683220572e-25)
(-8.00652756802874e-07 2.41479653598542e-07 8.88860167650777e-25)
(-7.35619319513762e-07 4.47503621742258e-07 9.96181738611193e-25)
(-6.55724122367609e-07 6.03235068786278e-07 6.06673255174591e-25)
(-5.73416576830926e-07 7.19610214094079e-07 9.72061245135285e-25)
(-4.95201463112085e-07 8.06537571644184e-07 1.13644548036803e-24)
(-4.23815851744107e-07 8.71876944526519e-07 6.58421576849661e-25)
(-3.601149403602e-07 9.21463734178161e-07 1.0553271229416e-24)
(-3.03877638245036e-07 9.59520236808379e-07 9.66611422750595e-25)
(-2.54419696804141e-07 9.89036991320035e-07 1.19590131195472e-24)
(-2.10878698928502e-07 1.0121320569453e-06 1.45478452281251e-24)
(-1.7236645498374e-07 1.0303040726873e-06 1.2125103116227e-24)
(-1.38036629570277e-07 1.04459835176211e-06 1.33683657595727e-24)
(-1.07112122623306e-07 1.05576972959474e-06 9.57721793443466e-25)
(-7.88839018674759e-08 1.06433528886667e-06 9.76025750696461e-25)
(-5.27092554759518e-08 1.0706736793134e-06 9.20468353126807e-25)
(-2.79915110298305e-08 1.07502845667767e-06 7.70537160857756e-25)
(-4.17017261535829e-09 1.07755649235767e-06 9.61378712422183e-25)
(1.92891609063824e-08 1.07832911543279e-06 9.16635599059332e-25)
(4.29160681373124e-08 1.07735062081996e-06 6.16765068333357e-25)
(6.72437447105778e-08 1.07455184464604e-06 1.47175266344899e-25)
(9.28251443388632e-08 1.06978539373572e-06 4.08640703855969e-25)
(1.20248375050992e-07 1.06280567019684e-06 3.53087357211354e-25)
(1.50142319721595e-07 1.05325274035065e-06 -1.82217182367217e-25)
(1.83201984690917e-07 1.04060103667776e-06 -9.39667008625625e-26)
(2.20189126050373e-07 1.02411406665566e-06 -4.81413159178963e-25)
(2.61931579576019e-07 1.00273193321528e-06 -3.56710085556529e-25)
(3.09295222156023e-07 9.74959303708136e-07 3.11359290949185e-25)
(3.63107854664744e-07 9.38684603336629e-07 2.90419911846159e-25)
(4.24012717333402e-07 8.90901837152825e-07 -1.80669863734105e-25)
(4.92196528204392e-07 8.27412250509168e-07 -2.55119910480147e-25)
(5.66742570825816e-07 7.42365923893621e-07 -2.13323073259283e-25)
(6.44854292582835e-07 6.27883188339719e-07 3.70352785912982e-25)
(7.19902349901707e-07 4.73973708098169e-07 -2.40996387513368e-25)
(7.79335942939534e-07 2.69437046734093e-07 -2.34380649565517e-25)
(8.00391252145336e-07 7.4942933180134e-09 3.83127064019558e-25)
(7.44842169051874e-07 -2.99569522065214e-07 -1.8803389001014e-25)
(5.58239115889694e-07 -5.68701314206901e-07 -1.93153539782928e-25)
(1.70150765799809e-07 -5.58954498786702e-07 4.70719166397871e-25)
(-4.45706347720164e-07 3.14822738403211e-07 -1.944477066233e-25)
(-1.15509410482366e-06 2.75421196625165e-06 -5.89617080143488e-26)
(-1.51297657413234e-06 6.50802000693803e-06 9.06506136856705e-25)
(-5.09687432274693e-07 6.456169355323e-06 2.0024341009826e-25)
(4.51117940042732e-07 5.66808129091171e-06 5.19444839028754e-25)
(1.51967372650203e-06 6.04443310593699e-06 1.66713091466632e-24)
(1.25343300792744e-06 2.79033593020524e-06 7.96703932524999e-25)
(6.38541151959451e-07 4.2391526962876e-07 4.2534849533778e-25)
(4.15029322272124e-08 -5.55943816779925e-07 7.59065538776056e-25)
(-3.62284111992165e-07 -6.93985233820601e-07 9.64723328916745e-25)
(-5.85233629256843e-07 -5.147341861323e-07 4.24881707359206e-25)
(-6.78407624099359e-07 -2.60963895226965e-07 4.5588479772484e-25)
(-6.90412928926721e-07 -2.68801587929035e-08 1.05167333927992e-24)
(-6.56853004040076e-07 1.65193149682811e-07 1.05684335003633e-24)
(-6.00983180876045e-07 3.15563320847068e-07 3.59512074413024e-26)
(-5.36541327994439e-07 4.31356510721293e-07 6.33311187739491e-25)
(-4.71466904642095e-07 5.201433654429e-07 1.06575902739812e-24)
(-4.09706390882014e-07 5.88402473056115e-07 2.10380668484641e-25)
(-3.53064129696281e-07 6.41204571611935e-07 1.06402457349416e-24)
(-3.02032589976166e-07 6.82375529529641e-07 7.28415100959647e-25)
(-2.56444442927019e-07 7.14723465928088e-07 8.91895284819453e-25)
(-2.15801984103336e-07 7.40283977731171e-07 1.35459279960746e-24)
(-1.79483178140264e-07 7.60542769907737e-07 9.75113936127023e-25)
(-1.46826490865503e-07 7.76564943145487e-07 1.36615328606652e-24)
(-1.17188586417416e-07 7.89126799192847e-07 8.1155037242149e-25)
(-8.996022715335e-08 7.98775707922766e-07 1.04664831874532e-24)
(-6.45690886381482e-08 8.05901227790143e-07 7.06878255895025e-25)
(-4.0476695491589e-08 8.10776758499567e-07 6.03622838250306e-25)
(-1.71689365676556e-08 8.13565608864918e-07 1.03512533645807e-24)
(5.84937247583598e-09 8.14349643390371e-07 7.50973047750536e-25)
(2.90638870891366e-08 8.1312706326254e-07 6.93312502231748e-25)
(5.29684796163387e-08 8.09828973675502e-07 -2.4152850306512e-25)
(7.80694945902522e-08 8.04298014404517e-07 2.77107206248557e-25)
(1.0489538689008e-07 7.9626449749083e-07 5.33334828262056e-25)
(1.34005778132572e-07 7.85350881003418e-07 -4.52640114461104e-25)
(1.65993771189399e-07 7.71011367048365e-07 2.00383566300261e-25)
(2.01487726669667e-07 7.52479967121749e-07 -7.61969569756877e-25)
(2.41128938473259e-07 7.28692207442206e-07 -6.34057235852079e-25)
(2.85519163806063e-07 6.98162661369641e-07 5.45423593673419e-25)
(3.35111981488515e-07 6.58851131521951e-07 2.69491906764344e-25)
(3.90035948793634e-07 6.07958399478185e-07 -1.18624270810977e-25)
(4.49760907538352e-07 5.41683402090139e-07 -2.30642312283274e-25)
(5.12411653441313e-07 4.54942401246158e-07 -4.20384919912303e-25)
(5.73974518304086e-07 3.41254973165163e-07 6.0358808185895e-25)
(6.26354148953354e-07 1.92986552932062e-07 -3.3155810634291e-26)
(6.55672915751862e-07 2.81812189200111e-09 -1.44985659836015e-26)
(6.3825707215746e-07 -2.30373701182426e-07 7.38494582939415e-25)