/*--------------------------------*- C++ -*----------------------------------*\
  =========                 |
  \\      /  F ield         | OpenFOAM: The Open Source CFD Toolbox
   \\    /   O peration     | Website:  https://openfoam.org
    \\  /    A nd           | Version:  10
     \\/     M anipulation  |
\*---------------------------------------------------------------------------*/
FoamFile
{
    format      ascii;
    class       volScalarField;
    location    "7.8";
    object      wallHeatFlux;
}
// * * * * * * * * * * * * * * * * * * * * * * * * * * * * * * * * * * * * * //

dimensions      [1 0 -3 0 0 0 0];

internalField   uniform 0;

boundaryField
{
    back
    {
        type            calculated;
        value           uniform 0;
    }
    bottom
    {
        type            calculated;
        value           nonuniform List<scalar> 
50
(
76.9414759877831
77.7723412578534
80.3484485033735
82.3807048240006
83.7083914212043
84.5185883979739
84.996581796085
85.2705735418519
85.4226617670044
85.5042190359643
85.5460538467184
85.566741625954
85.5765711128761
85.5809968353413
85.582924047029
85.5836838419806
85.5840215996419
85.5841255285511
85.5841354410327
85.5841429090416
85.5841386374898
85.5841335436451
85.5841284908244
85.5841325536607
85.5841293898566
85.5841277573718
85.5841331428672
85.5841380116235
85.5841466752521
85.5841566063578
85.5841613947592
85.5841671054143
85.5841233717099
85.5839894182047
85.5836337771847
85.5827475162773
85.580654703887
85.5758738981521
85.5656371671499
85.5442466105539
85.5014665781508
85.4191681112063
85.266673042975
84.9934111862262
84.5182630328703
83.7114075814713
82.3835111126948
80.3402456790635
77.7496400060424
76.9637983424954
)
;
    }
    left
    {
        type            calculated;
        value           uniform 0;
    }
    front
    {
        type            calculated;
        value           uniform 0;
    }
    right
    {
        type            calculated;
        value           uniform 0;
    }
    top
    {
        type            calculated;
        value           uniform 0;
    }
}


// ************************************************************************* //
