/*--------------------------------*- C++ -*----------------------------------*\
  =========                 |
  \\      /  F ield         | OpenFOAM: The Open Source CFD Toolbox
   \\    /   O peration     | Website:  https://openfoam.org
    \\  /    A nd           | Version:  10
     \\/     M anipulation  |
\*---------------------------------------------------------------------------*/
FoamFile
{
    format      ascii;
    class       volScalarField;
    location    "1.4";
    object      alphat;
}
// * * * * * * * * * * * * * * * * * * * * * * * * * * * * * * * * * * * * * //

dimensions      [1 -1 -1 0 0 0 0];

internalField   nonuniform List<scalar> 
2500
(
2.13008823573985e-12
4.38718447163195e-12
8.80162295743398e-12
1.07915293361111e-11
1.14278802055379e-11
1.15932267721998e-11
1.16302104029495e-11
1.16375913705667e-11
1.16389369346871e-11
1.1639165155079e-11
1.16391971408386e-11
1.16391951526358e-11
1.16391910135569e-11
1.16391865509414e-11
1.16391817935526e-11
1.16391775678143e-11
1.16391745039985e-11
1.1639172079291e-11
1.16391699924125e-11
1.16391681048042e-11
1.16391664031122e-11
1.16391648846938e-11
1.16391635219138e-11
1.16391622610659e-11
1.16391611611489e-11
1.16391602507647e-11
1.16391594655295e-11
1.16391588542494e-11
1.16391584289042e-11
1.16391581527117e-11
1.16391583574197e-11
1.16391592903827e-11
1.1639159887337e-11
1.16391601918559e-11
1.16391612771258e-11
1.16391628398277e-11
1.16391649324194e-11
1.16391671333865e-11
1.16391678160766e-11
1.16391575400631e-11
1.16390720286762e-11
1.16386121542966e-11
1.16363217433244e-11
1.16255896650225e-11
1.15790572732496e-11
1.13956183447731e-11
1.07552841051268e-11
8.85637748837952e-12
4.49167675730148e-12
2.16262869172239e-12
2.97343340178805e-11
5.60150053969132e-10
1.70187113248003e-09
2.25195723525306e-09
2.43856252484345e-09
2.48934891148301e-09
2.501126919343e-09
2.50354571129152e-09
2.50399718985374e-09
2.50407495534929e-09
2.5040862572958e-09
2.50408635198961e-09
2.50408534963323e-09
2.50408422834871e-09
2.50408308834861e-09
2.50408208115274e-09
2.50408130392469e-09
2.50408067831623e-09
2.50408014120187e-09
2.50407966664339e-09
2.5040792475371e-09
2.50407887849438e-09
2.50407855319793e-09
2.50407825677376e-09
2.50407800164127e-09
2.50407779817326e-09
2.50407762895683e-09
2.50407750498253e-09
2.50407743276105e-09
2.5040774016166e-09
2.50407753936808e-09
2.50407786972356e-09
2.50407799984749e-09
2.50407809568894e-09
2.50407845346943e-09
2.50407889591998e-09
2.50407932258736e-09
2.50407986891123e-09
2.50408006643886e-09
2.50407614035814e-09
2.50404746674208e-09
2.50389644299173e-09
2.5031539027204e-09
2.4997400252853e-09
2.48527728127718e-09
2.42990318604796e-09
2.24377130037329e-09
1.71889135757999e-09
5.86748269344565e-10
3.2020943682583e-11
5.73004358669321e-11
8.30634850599816e-09
2.08754274091904e-06
2.79471665396422e-06
3.04291046985838e-06
3.1133204918938e-06
3.13029683150382e-06
3.13390557639695e-06
3.13460008291565e-06
3.13472308908291e-06
3.1347421400654e-06
3.13474339977631e-06
3.13474248775506e-06
3.13474133390545e-06
3.13474016412837e-06
3.13473912685712e-06
3.1347382978525e-06
3.13473762268244e-06
3.13473704352425e-06
3.13473653068363e-06
3.13473607353249e-06
3.13473566678222e-06
3.13473530531713e-06
3.13473498565929e-06
3.13473470632344e-06
3.13473447438011e-06
3.13473428829837e-06
3.13473414397657e-06
3.13473404754128e-06
3.13473400286965e-06
3.13473406231174e-06
3.13473437500929e-06
3.13473464763523e-06
3.13473465321496e-06
3.13473497977861e-06
3.13473533661176e-06
3.13473583368569e-06
3.13473624416252e-06
3.13473616771982e-06
3.13472962238011e-06
3.13468719153324e-06
3.1344679383332e-06
3.13340168408064e-06
3.12856904025565e-06
3.10845240660583e-06
3.03310089488975e-06
2.78632966503491e-06
2.10744702310089e-06
8.66867945207923e-09
6.20013341577557e-11
7.84162152094771e-11
1.31664420603358e-08
3.3317113999657e-06
4.43657204694325e-06
4.82738631099828e-06
4.94015570282064e-06
4.96790744553382e-06
4.97393598818249e-06
4.97512202509815e-06
4.9753368525939e-06
4.9753714746502e-06
4.97537486867212e-06
4.97537390271771e-06
4.97537241720512e-06
4.97537088998668e-06
4.97536952853556e-06
4.97536841841821e-06
4.97536749988766e-06
4.97536670173638e-06
4.97536599028391e-06
4.97536534970102e-06
4.97536477184998e-06
4.97536425441208e-06
4.97536379246767e-06
4.97536338519347e-06
4.97536303768532e-06
4.97536274788752e-06
4.97536251478308e-06
4.9753623412673e-06
4.97536223426649e-06
4.97536222945104e-06
4.97536257601277e-06
4.97536283846417e-06
4.97536291516919e-06
4.97536314944269e-06
4.97536360206756e-06
4.97536407990116e-06
4.97536450328704e-06
4.97536415592764e-06
4.97535376630672e-06
4.97529001359456e-06
4.97495793502969e-06
4.97332545608433e-06
4.96585267691938e-06
4.93446920581203e-06
4.81608763582651e-06
4.42651823444323e-06
3.3507304457661e-06
1.35272576956118e-08
8.31150085918334e-11
9.20589591593685e-11
1.65255745097519e-08
4.20562277892348e-06
5.58617777955057e-06
6.07857199271922e-06
6.22270527301984e-06
6.25879381222384e-06
6.26678217933544e-06
6.26838501398456e-06
6.26868138336184e-06
6.26873097819816e-06
6.26873708053893e-06
6.2687364142709e-06
6.26873496736421e-06
6.26873343764472e-06
6.26873205808459e-06
6.26873090687543e-06
6.26872993521012e-06
6.2687290799015e-06
6.26872830915876e-06
6.26872760701365e-06
6.26872696681106e-06
6.26872638602626e-06
6.26872586187243e-06
6.26872539379691e-06
6.26872498371088e-06
6.26872463078516e-06
6.26872433585391e-06
6.26872410027745e-06
6.26872392907459e-06
6.26872384075739e-06
6.26872398636307e-06
6.26872417669594e-06
6.26872432959326e-06
6.26872445801685e-06
6.26872480558429e-06
6.2687252065812e-06
6.26872546807993e-06
6.26872456794697e-06
6.26871149415656e-06
6.26863466435214e-06
6.26823061149187e-06
6.26622676976639e-06
6.25697577791186e-06
6.21782877630062e-06
6.06930129191388e-06
5.57888389042816e-06
4.22324899220355e-06
1.68419225729158e-08
9.64144160993958e-11
1.00072232197859e-10
1.86230749264593e-08
4.77109592734284e-06
6.33313476367934e-06
6.89457038719989e-06
7.06086951380405e-06
7.10310345245215e-06
7.11260009497019e-06
7.11453776910066e-06
7.11490254500413e-06
7.11496550124616e-06
7.11497429169046e-06
7.1149742318308e-06
7.11497302620236e-06
7.11497168376381e-06
7.11497045029154e-06
7.11496939305448e-06
7.11496847946663e-06
7.11496766245628e-06
7.11496691642852e-06
7.11496622857651e-06
7.11496559432607e-06
7.11496501113189e-06
7.11496447823393e-06
7.11496399495546e-06
7.11496356245304e-06
7.11496318023663e-06
7.11496284981724e-06
7.11496257186339e-06
7.11496234965007e-06
7.11496219048074e-06
7.1149621474526e-06
7.11496222940064e-06
7.11496232105024e-06
7.11496246271702e-06
7.11496259952797e-06
7.11496283475837e-06
7.11496298335615e-06
7.11496139696342e-06
7.11494651459211e-06
7.11486190118649e-06
7.11441340713417e-06
7.11217546254406e-06
7.10178024101499e-06
7.05755359061165e-06
6.8890941851743e-06
6.33184463521225e-06
4.79185069962038e-06
1.89259495548097e-08
1.04284389250481e-10
1.04469866072421e-10
1.98358697419428e-08
5.11268949967879e-06
6.78830855103793e-06
7.39449210735942e-06
7.57572908235435e-06
7.62227670559713e-06
7.63287644874052e-06
7.6350691808341e-06
7.63548825657397e-06
7.63556232664545e-06
7.63557353617161e-06
7.63557413138267e-06
7.63557323068439e-06
7.63557213396338e-06
7.63557109936402e-06
7.63557018544988e-06
7.63556937457496e-06
7.63556863566498e-06
7.63556795107394e-06
7.63556731180383e-06
7.63556671533241e-06
7.63556615985734e-06
7.63556564574974e-06
7.63556517244611e-06
7.63556474113405e-06
7.63556435151097e-06
7.63556400518358e-06
7.63556370242612e-06
7.63556344559537e-06
7.63556323768375e-06
7.63556309731381e-06
7.63556303345862e-06
7.63556305560385e-06
7.63556304417681e-06
7.63556312010604e-06
7.63556321199522e-06
7.63556312362734e-06
7.63556085733354e-06
7.63554512631704e-06
7.63545594334517e-06
7.63498125181357e-06
7.63260304020811e-06
7.6215105081551e-06
7.57414661324995e-06
7.39328146509e-06
6.79440071491038e-06
5.14018370113001e-06
2.01572480257183e-08
1.087220354044e-10
1.067574419296e-10
2.04952357155111e-08
5.30717959949256e-06
7.05048442795352e-06
7.6843399367002e-06
7.87518158055312e-06
7.92461531654475e-06
7.93598293847629e-06
7.93836028618153e-06
7.93882024124472e-06
7.93890300736086e-06
7.9389161979535e-06
7.93891738670646e-06
7.93891677066479e-06
7.93891590204945e-06
7.93891505445272e-06
7.93891428121322e-06
7.93891357588049e-06
7.93891292011432e-06
7.93891230345466e-06
7.93891172031857e-06
7.93891116995654e-06
7.9389106514139e-06
7.93891016576695e-06
7.93890971275321e-06
7.93890929375462e-06
7.93890890856471e-06
7.93890855868364e-06
7.93890824415993e-06
7.9389079668339e-06
7.93890772786097e-06
7.93890753446417e-06
7.9389073907804e-06
7.9389073025222e-06
7.93890723572015e-06
7.93890721985529e-06
7.93890719295626e-06
7.93890687300562e-06
7.93890427913035e-06
7.93888801244591e-06
7.93879620896048e-06
7.93830682632157e-06
7.93584892914954e-06
7.92435442225197e-06
7.87516109867254e-06
7.68701309235601e-06
7.06366307460154e-06
5.34252681239297e-06
2.0849043869561e-08
1.11125078704632e-10
1.07896089699062e-10
2.08359963726827e-08
5.41238362363622e-06
7.19420642223548e-06
7.84442321522689e-06
8.04116868142191e-06
8.09244697116919e-06
8.10432462485751e-06
8.10682931222607e-06
8.10731853983372e-06
8.10740774605592e-06
8.10742246116042e-06
8.10742412829016e-06
8.10742373775396e-06
8.10742304866652e-06
8.10742234935627e-06
8.1074216908558e-06
8.10742107409424e-06
8.10742048957393e-06
8.10741993225028e-06
8.10741939918626e-06
8.10741889097393e-06
8.10741840738082e-06
8.10741794998854e-06
8.10741751880189e-06
8.10741711536511e-06
8.10741673953883e-06
8.10741639274814e-06
8.10741607486203e-06
8.1074157873597e-06
8.10741553053635e-06
8.10741530768012e-06
8.10741512047896e-06
8.10741497228307e-06
8.1074148528926e-06
8.10741476584736e-06
8.10741465363179e-06
8.10741419965862e-06
8.10741141027358e-06
8.1073948059049e-06
8.10730157282025e-06
8.10680434486964e-06
8.10430344669235e-06
8.09258915994249e-06
8.04238498411133e-06
7.85018619449081e-06
7.21319405009473e-06
5.45477119186316e-06
2.12216998616033e-08
1.12381629996081e-10
1.08442220432182e-10
2.10047905691817e-08
5.46682416358398e-06
7.26965763133361e-06
7.92915263175396e-06
8.12937766735759e-06
8.18178545084898e-06
8.19398736285133e-06
8.19657602899953e-06
8.19708526618616e-06
8.19717901365561e-06
8.19719484249294e-06
8.19719687102148e-06
8.19719663471592e-06
8.19719607327166e-06
8.19719548031773e-06
8.19719490619674e-06
8.19719435625518e-06
8.19719382654489e-06
8.19719331563153e-06
8.19719282242431e-06
8.19719234844893e-06
8.1971918939929e-06
8.19719146097108e-06
8.1971910495883e-06
8.19719066150092e-06
8.19719029661278e-06
8.19718995629401e-06
8.19718964027941e-06
8.19718934981158e-06
8.19718908473576e-06
8.19718884686004e-06
8.19718863663593e-06
8.19718845600097e-06
8.1971883011402e-06
8.19718816776708e-06
8.19718799970352e-06
8.19718746667793e-06
8.19718456347651e-06
8.19716776208419e-06
8.19707378315439e-06
8.19657255410099e-06
8.19404953278942e-06
8.18222077840364e-06
8.13148469913882e-06
7.93713940135033e-06
7.29289065643768e-06
5.51459341025392e-06
2.14153517165812e-08
1.13018805273664e-10
1.08695991420887e-10
2.10854527221241e-08
5.49393645234514e-06
7.30780115359615e-06
7.97236083113362e-06
8.17455897268954e-06
8.22763167459735e-06
8.24003158977496e-06
8.2426733957746e-06
8.24319573971609e-06
8.24329255370811e-06
8.24330915371376e-06
8.24331142546378e-06
8.24331130474604e-06
8.24331082900666e-06
8.24331030776123e-06
8.24330979199114e-06
8.24330928952887e-06
8.24330879962618e-06
8.24330832304733e-06
8.24330785987785e-06
8.24330741224107e-06
8.2433069807641e-06
8.24330656756598e-06
8.2433061729812e-06
8.24330579873273e-06
8.24330544474723e-06
8.24330511235355e-06
8.2433048011996e-06
8.24330451237175e-06
8.24330424546542e-06
8.24330400167074e-06
8.24330378081438e-06
8.24330358404425e-06
8.24330340907074e-06
8.24330324902427e-06
8.24330304791819e-06
8.24330247003652e-06
8.24329950327718e-06
8.24328259366586e-06
8.24318824151128e-06
8.24268505681725e-06
8.24015113727749e-06
8.22826531306596e-06
8.17726127137596e-06
7.98182619442477e-06
7.33387351529024e-06
5.54538617295439e-06
2.15128976134381e-08
1.13333220166652e-10
1.08810711883294e-10
2.11228297229709e-08
5.50699712567395e-06
7.32645928772702e-06
7.99369006673734e-06
8.19696851318833e-06
8.25041883822903e-06
8.26293528783852e-06
8.26560947129376e-06
8.26614007258567e-06
8.26623887924141e-06
8.26625598650035e-06
8.26625842355547e-06
8.26625838199685e-06
8.26625796218732e-06
8.26625748808385e-06
8.26625701187564e-06
8.26625654271113e-06
8.26625608154164e-06
8.26625563035655e-06
8.26625518993126e-06
8.26625476274058e-06
8.26625434961249e-06
8.2662539527781e-06
8.26625357264776e-06
8.26625321097067e-06
8.26625286768872e-06
8.26625254409252e-06
8.26625223977797e-06
8.26625195572734e-06
8.2662516913955e-06
8.26625144768296e-06
8.26625122409988e-06
8.26625102136985e-06
8.26625083746608e-06
8.26625066458949e-06
8.26625044669044e-06
8.26624984584325e-06
8.26624684626135e-06
8.26622988116242e-06
8.26613535027806e-06
8.26563124702747e-06
8.26309216517869e-06
8.25117897174749e-06
8.20004501437926e-06
8.0040769997334e-06
7.35430055048596e-06
5.56076220451681e-06
2.1560709891106e-08
1.1348462704433e-10
1.08861326476478e-10
2.11396911218803e-08
5.51310870550038e-06
7.3353263267745e-06
8.00392302397265e-06
8.20777453417319e-06
8.26143245496073e-06
8.27401523187805e-06
8.27670847401904e-06
8.27724409613485e-06
8.27734415253961e-06
8.2773615843999e-06
8.27736413018556e-06
8.27736414153474e-06
8.27736375814774e-06
8.27736331520828e-06
8.27736286615536e-06
8.27736242077985e-06
8.2773619808439e-06
8.27736154895851e-06
8.27736112627577e-06
8.27736071545343e-06
8.27736031742995e-06
8.27735993448649e-06
8.27735956707451e-06
8.27735921694574e-06
8.27735888404709e-06
8.27735856963645e-06
8.27735827327833e-06
8.27735799588282e-06
8.2773577368256e-06
8.27735749685842e-06
8.27735727532763e-06
8.27735707273557e-06
8.27735688705797e-06
8.27735671018289e-06
8.27735648607875e-06
8.27735587591023e-06
8.2773528617307e-06
8.27733587085292e-06
8.27724125879634e-06
8.27673674038898e-06
8.27419529784884e-06
8.26226941996648e-06
8.21107454922559e-06
8.01485425859752e-06
7.36420741403901e-06
5.56823798561004e-06
2.15835843479088e-08
1.13555941754091e-10
1.08883183764045e-10
2.11471186508645e-08
5.51589618010281e-06
7.33943424232333e-06
8.0087104454788e-06
8.21285743154519e-06
8.26662617386221e-06
8.27924557304813e-06
8.28194968741865e-06
8.28248826535214e-06
8.28258908094342e-06
8.28260671604605e-06
8.28260933306396e-06
8.28260938057133e-06
8.28260902195928e-06
8.28260860081439e-06
8.28260817161835e-06
8.28260774442437e-06
8.2826073213294e-06
8.2826069052203e-06
8.28260649743676e-06
8.2826061007149e-06
8.28260571604832e-06
8.28260534572584e-06
8.2826049902187e-06
8.28260465126526e-06
8.28260432881094e-06
8.28260402408356e-06
8.28260373662775e-06
8.28260346730015e-06
8.28260321543336e-06
8.28260298169012e-06
8.28260276533659e-06
8.28260256676003e-06
8.28260238393994e-06
8.28260220875611e-06
8.28260198542727e-06
8.28260137479123e-06
8.28259835703091e-06
8.28258135691106e-06
8.28248671142635e-06
8.28198201339814e-06
8.2794395254401e-06
8.26750794065957e-06
8.21628532006969e-06
8.01994890810538e-06
7.36889771512537e-06
5.57178776928941e-06
2.15942918249209e-08
1.13588858864058e-10
1.08892495336018e-10
2.11503206799802e-08
5.51713865058127e-06
7.34129456598075e-06
8.01090063320255e-06
8.21519615387342e-06
8.26902251631993e-06
8.2816615891403e-06
8.28437173149213e-06
8.28491199936007e-06
8.28501326378002e-06
8.28503102471515e-06
8.28503368952853e-06
8.28503376331925e-06
8.28503342303738e-06
8.28503301860354e-06
8.28503260521824e-06
8.28503219302083e-06
8.28503178423566e-06
8.28503138185872e-06
8.28503098732266e-06
8.28503060337993e-06
8.28503023104437e-06
8.28502987259318e-06
8.28502952850311e-06
8.28502920048925e-06
8.28502888849674e-06
8.28502859372033e-06
8.2850283156924e-06
8.28502805522696e-06
8.28502781163044e-06
8.28502758550604e-06
8.28502737608074e-06
8.28502718368618e-06
8.28502700635251e-06
8.28502683616918e-06
8.28502661794083e-06
8.28502601256952e-06
8.28502299772106e-06
8.28500599718239e-06
8.28491134091603e-06
8.28440656973838e-06
8.28186363234774e-06
8.26992954236706e-06
8.21869457710611e-06
8.02230595401458e-06
7.37107118193282e-06
5.57343795359832e-06
2.1599204818406e-08
1.13603801125985e-10
1.08896524458699e-10
2.11516729001419e-08
5.51768074089018e-06
7.34211971207678e-06
8.01188250966661e-06
8.21625104793678e-06
8.27010667506282e-06
8.2827560598532e-06
8.28546945963976e-06
8.2860106691134e-06
8.28611219394045e-06
8.28613003375413e-06
8.28613273282335e-06
8.28613282789128e-06
8.28613250310862e-06
8.2861321133971e-06
8.28613171423307e-06
8.28613131580411e-06
8.28613092041055e-06
8.28613053108557e-06
8.2861301493317e-06
8.28612977787184e-06
8.28612941772208e-06
8.28612907113522e-06
8.28612873858558e-06
8.28612842176053e-06
8.28612812060112e-06
8.28612783626965e-06
8.28612756829034e-06
8.28612731743508e-06
8.28612708299426e-06
8.28612686552254e-06
8.28612666422611e-06
8.28612647940854e-06
8.2861263091982e-06
8.28612614606292e-06
8.28612593581489e-06
8.28612533985238e-06
8.28612233203118e-06
8.28610533600671e-06
8.28601067989521e-06
8.28550588281052e-06
8.2829627582944e-06
8.2710275885594e-06
8.21978722676326e-06
8.02337555264273e-06
7.37205899093841e-06
5.57419026225591e-06
2.16014174713815e-08
1.13610584012948e-10
1.08898237351958e-10
2.11522300397093e-08
5.51791229964491e-06
7.34247854701997e-06
8.01231445947941e-06
8.21671821711443e-06
8.27058841080668e-06
8.28324308573295e-06
8.28595820671856e-06
8.28649993009286e-06
8.28660160553257e-06
8.28661949736825e-06
8.28662222349839e-06
8.28662233760441e-06
8.28662202719698e-06
8.2866216518769e-06
8.28662126667391e-06
8.28662088183345e-06
8.28662049972315e-06
8.2866201233751e-06
8.28661975443153e-06
8.2866193955343e-06
8.28661904768615e-06
8.28661871311157e-06
8.28661839228099e-06
8.28661808685361e-06
8.28661779676282e-06
8.28661752314072e-06
8.28661726549851e-06
8.28661702457079e-06
8.28661679962796e-06
8.28661659118101e-06
8.28661639841721e-06
8.28661622161759e-06
8.28661605901846e-06
8.28661590355703e-06
8.28661570237981e-06
8.28661511783667e-06
8.28661211878285e-06
8.28659512955109e-06
8.28650047870755e-06
8.28599567629813e-06
8.28345247719582e-06
8.27151684568718e-06
8.22027414106035e-06
8.0238523961837e-06
7.37249989199303e-06
5.57452691306716e-06
2.16023970195273e-08
1.13613708271459e-10
1.08899033994993e-10
2.11524553112556e-08
5.51800889110477e-06
7.34263133873874e-06
8.01250088471903e-06
8.21692139251242e-06
8.27079872427177e-06
8.28345606626971e-06
8.28617208041945e-06
8.28671408079332e-06
8.28681584559076e-06
8.28683377549705e-06
8.28683652574222e-06
8.28683665813781e-06
8.28683636168402e-06
8.28683600152012e-06
8.28683563107482e-06
8.28683526059232e-06
8.28683489246005e-06
8.2868345296164e-06
8.28683417413131e-06
8.28683382843472e-06
8.28683349349218e-06
8.28683317149638e-06
8.28683286291535e-06
8.28683256937851e-06
8.28683229081256e-06
8.28683202831505e-06
8.28683178138538e-06
8.28683155071357e-06
8.28683133554696e-06
8.28683113634566e-06
8.28683095227456e-06
8.28683078357906e-06
8.28683062856255e-06
8.28683048053688e-06
8.28683028786028e-06
8.28682971378904e-06
8.28682672296914e-06
8.2868097413892e-06
8.28671509853867e-06
8.28621030023172e-06
8.28366707446743e-06
8.2717312435939e-06
8.22048750765802e-06
8.02406134673482e-06
7.3726931316361e-06
5.57467462844736e-06
2.16028242680714e-08
1.13615282248027e-10
1.0889960569722e-10
2.1152550771113e-08
5.51804783843125e-06
7.34269464620351e-06
8.01257959689822e-06
8.21700803545988e-06
8.27088883857614e-06
8.2835475104951e-06
8.28626398222403e-06
8.2868061312675e-06
8.28690795212088e-06
8.28692591367537e-06
8.28692868722997e-06
8.2869288367043e-06
8.28692855459125e-06
8.28692821038589e-06
8.28692785552022e-06
8.2869275001526e-06
8.28692714654495e-06
8.28692679718129e-06
8.28692645555715e-06
8.28692612347502e-06
8.28692580179465e-06
8.28692549267387e-06
8.28692519658023e-06
8.28692491511707e-06
8.28692464820157e-06
8.28692439689594e-06
8.2869241606864e-06
8.28692394021297e-06
8.2869237346928e-06
8.28692354452812e-06
8.28692336885148e-06
8.28692320784863e-06
8.28692305979955e-06
8.28692291806846e-06
8.28692273132325e-06
8.28692216262439e-06
8.28691917723126e-06
8.28690220289831e-06
8.28680756899374e-06
8.28630277860626e-06
8.2837595457651e-06
8.27182362429743e-06
8.22057940580213e-06
8.02415123960534e-06
7.37277606151356e-06
5.57473784058046e-06
2.16030089706282e-08
1.13615724894958e-10
1.08899601389799e-10
2.11525990854541e-08
5.51806234973361e-06
7.34271956542213e-06
8.01261172428886e-06
8.21704398373383e-06
8.27092648837613e-06
8.28358582271879e-06
8.28630252725619e-06
8.28684475638465e-06
8.28694661515503e-06
8.28696460521836e-06
8.28696740282866e-06
8.28696756924235e-06
8.2869673018791e-06
8.28696697435022e-06
8.28696663588834e-06
8.28696629644518e-06
8.28696595780784e-06
8.28696562059084e-06
8.2869652930534e-06
8.28696497503493e-06
8.28696466705856e-06
8.28696437122595e-06
8.28696408800622e-06
8.28696381897783e-06
8.28696356404891e-06
8.28696332424081e-06
8.28696309902849e-06
8.2869628889959e-06
8.2869626933241e-06
8.28696251235133e-06
8.28696234517028e-06
8.2869621918849e-06
8.28696205065471e-06
8.28696191449717e-06
8.28696173123095e-06
8.28696116304471e-06
8.2869581809506e-06
8.28694121347295e-06
8.28684658830562e-06
8.28634180645697e-06
8.28379857334622e-06
8.27186260512323e-06
8.22061812492772e-06
8.02418896227451e-06
7.3728105244444e-06
5.57476366993084e-06
2.1603093605075e-08
1.13615890427175e-10
1.08899417938993e-10
2.11525966965586e-08
5.51806559903945e-06
7.34272809316981e-06
8.01262399806234e-06
8.21705821378557e-06
8.27094158257123e-06
8.28360125262397e-06
8.28631807896644e-06
8.2868603543435e-06
8.28696224118465e-06
8.28698025708724e-06
8.28698307898501e-06
8.28698326142987e-06
8.28698300844579e-06
8.28698269784741e-06
8.28698237631054e-06
8.28698205341965e-06
8.28698172976033e-06
8.28698139865365e-06
8.28698108433301e-06
8.28698078037945e-06
8.28698048622048e-06
8.28698020384034e-06
8.28697993370442e-06
8.28697967737152e-06
8.28697943473068e-06
8.28697920676417e-06
8.28697899293548e-06
8.28697879377515e-06
8.28697860841975e-06
8.2869784371446e-06
8.28697827899776e-06
8.28697813399692e-06
8.28697800013226e-06
8.28697786986794e-06
8.28697768970008e-06
8.28697712142844e-06
8.28697414209221e-06
8.28695718003151e-06
8.28686256106159e-06
8.28635778545671e-06
8.28381455178803e-06
8.27187855137199e-06
8.2206338896597e-06
8.02420415640564e-06
7.37282399397628e-06
5.57477307881674e-06
2.16031117314838e-08
1.13615997238087e-10
1.08899581239188e-10
2.11525466482953e-08
5.51806393430503e-06
7.34272976200796e-06
8.01262783857948e-06
8.21706318040888e-06
8.27094704035406e-06
8.28360690010232e-06
8.28632379891507e-06
8.28686610621054e-06
8.28696801615505e-06
8.28698605618717e-06
8.28698890104851e-06
8.28698909833604e-06
8.28698885947282e-06
8.28698856690801e-06
8.28698826398092e-06
8.28698795971559e-06
8.28698765256432e-06
8.28698730811028e-06
8.28698700415732e-06
8.28698671421424e-06
8.28698643417737e-06
8.28698616570517e-06
8.28698590924078e-06
8.28698566632559e-06
8.2869854368181e-06
8.28698522165616e-06
8.28698502029847e-06
8.2869848332321e-06
8.28698465954054e-06
8.28698449943691e-06
8.28698435193229e-06
8.28698421696759e-06
8.28698409238686e-06
8.28698397015575e-06
8.28698379567949e-06
8.28698323060658e-06
8.28698025557374e-06
8.28696329784979e-06
8.28686868370609e-06
8.28636391558643e-06
8.28382068282295e-06
8.27188465138973e-06
8.22063984604661e-06
8.02420962285269e-06
7.37282831268294e-06
5.57477528512904e-06
2.16030943261843e-08
1.13616115274709e-10
1.08898944481811e-10
2.11525031735639e-08
5.51806086678635e-06
7.34272871059754e-06
8.01262819846912e-06
8.21706429243776e-06
8.27094846970436e-06
8.28360844850882e-06
8.2863253871766e-06
8.28686771107278e-06
8.28696963434952e-06
8.28698769144881e-06
8.2869905527052e-06
8.28699075917374e-06
8.2869905302597e-06
8.28699025556642e-06
8.2869899730332e-06
8.28698969086161e-06
8.28698940748285e-06
8.2869890813456e-06
8.28698879541531e-06
8.28698852023057e-06
8.28698825457908e-06
8.2869880002066e-06
8.28698775757537e-06
8.28698752821699e-06
8.28698731193958e-06
8.28698710963038e-06
8.28698692076399e-06
8.28698674579138e-06
8.28698658370935e-06
8.28698643467009e-06
8.28698629764128e-06
8.28698617249231e-06
8.28698605695159e-06
8.28698594263522e-06
8.28698577424739e-06
8.28698521330847e-06
8.28698224199272e-06
8.28696528648596e-06
8.28687067435531e-06
8.28636590963151e-06
8.28382267178326e-06
8.27188659946156e-06
8.2206416654468e-06
8.02421097727021e-06
7.37282876626314e-06
5.57477443337112e-06
2.16030723662904e-08
1.13615796131199e-10
1.08898103124563e-10
2.11524709282008e-08
5.51805748306391e-06
7.34272661349264e-06
8.01262715568016e-06
8.21706379562034e-06
8.27094819328106e-06
8.28360824878926e-06
8.28632520803338e-06
8.28686753933782e-06
8.28696947083182e-06
8.28698754132479e-06
8.28699041517085e-06
8.28699062808546e-06
8.28699040615839e-06
8.28699014232651e-06
8.28698987135109e-06
8.28698960154163e-06
8.28698933366251e-06
8.28698905391624e-06
8.28698878395939e-06
8.28698852343416e-06
8.28698827228223e-06
8.28698803232182e-06
8.28698780405078e-06
8.28698758899265e-06
8.28698738685901e-06
8.28698719848958e-06
8.28698702330227e-06
8.28698686170177e-06
8.28698671272381e-06
8.28698657648119e-06
8.28698645192337e-06
8.28698633886725e-06
8.28698623498396e-06
8.28698613171698e-06
8.28698597342945e-06
8.28698542156177e-06
8.28698245896605e-06
8.28696551118388e-06
8.28687090490879e-06
8.2863661407858e-06
8.28382289447987e-06
8.27188678170237e-06
8.22064172252899e-06
8.0242107095483e-06
7.37282773561761e-06
5.57477231582575e-06
2.16030426781906e-08
1.13615208786074e-10
1.08897882814176e-10
2.11524462168675e-08
5.51805417913071e-06
7.34272418223178e-06
8.01262556461181e-06
8.21706264238619e-06
8.27094721255887e-06
8.28360732589219e-06
8.28632430290429e-06
8.28686664354796e-06
8.28696858681471e-06
8.28698667379184e-06
8.2869895628806e-06
8.28698978507397e-06
8.28698957183e-06
8.28698931496126e-06
8.28698905007948e-06
8.28698878551585e-06
8.2869885230422e-06
8.28698826074359e-06
8.28698800554565e-06
8.28698775928925e-06
8.28698752244855e-06
8.28698729686404e-06
8.28698708296329e-06
8.2869868822048e-06
8.28698669436579e-06
8.28698652026756e-06
8.28698635930945e-06
8.28698621187201e-06
8.2869860769962e-06
8.2869859547586e-06
8.2869858441105e-06
8.28698574483893e-06
8.28698565458802e-06
8.28698556477307e-06
8.28698541966408e-06
8.28698488064336e-06
8.28698193073486e-06
8.28696499516013e-06
8.28687039965101e-06
8.28636564118466e-06
8.28382239406681e-06
8.27188625477729e-06
8.22064109200639e-06
8.02420977613795e-06
7.37282613561879e-06
5.57476984141916e-06
2.16030188579059e-08
1.13614930901367e-10
1.08897779056245e-10
2.11524250700896e-08
5.51805093867504e-06
7.34272157302904e-06
8.0126236636993e-06
8.21706111720472e-06
8.27094583405006e-06
8.283605995428e-06
8.28632298793308e-06
8.28686533826173e-06
8.28696729434908e-06
8.28698539834677e-06
8.28698830344164e-06
8.28698853600857e-06
8.2869883327111e-06
8.28698808786267e-06
8.28698783518875e-06
8.28698758271312e-06
8.28698733238548e-06
8.28698708547268e-06
8.2869868448655e-06
8.28698661285707e-06
8.28698639013926e-06
8.28698617855851e-06
8.28698597850786e-06
8.28698579139145e-06
8.28698561702492e-06
8.28698545622801e-06
8.28698530840374e-06
8.28698517390529e-06
8.28698505173743e-06
8.28698494190591e-06
8.28698484335281e-06
8.28698475582835e-06
8.28698467692843e-06
8.28698459812737e-06
8.28698446374768e-06
8.28698393500991e-06
8.28698099458681e-06
8.28696406752542e-06
8.28686948035775e-06
8.28636472931945e-06
8.28382148526155e-06
8.27188532763496e-06
8.22064007649114e-06
8.02420849177889e-06
7.37282427641634e-06
5.57476732697906e-06
2.16029995757119e-08
1.136146600957e-10
1.08897697301983e-10
2.11524051267162e-08
5.51804763272939e-06
7.34271874513692e-06
8.01262145804884e-06
8.21705924940695e-06
8.27094409826762e-06
8.28360430248971e-06
8.28632130919364e-06
8.28686366936502e-06
8.28696563848746e-06
8.28698375914876e-06
8.28698668050528e-06
8.28698692383095e-06
8.28698673020081e-06
8.28698649821127e-06
8.28698625888311e-06
8.28698601976133e-06
8.28698578277684e-06
8.2869855501101e-06
8.28698532346986e-06
8.2869851051889e-06
8.28698489604365e-06
8.28698469787628e-06
8.28698451106288e-06
8.28698433697552e-06
8.28698417546712e-06
8.28698402737361e-06
8.28698389212398e-06
8.28698377004116e-06
8.2869836600423e-06
8.28698356199796e-06
8.28698347485076e-06
8.28698339833681e-06
8.28698332997337e-06
8.28698326142054e-06
8.28698313720569e-06
8.28698261819151e-06
8.28697968600555e-06
8.28696276547252e-06
8.28686818525226e-06
8.28636344242858e-06
8.28382020485439e-06
8.27188403775413e-06
8.22063871788642e-06
8.02420690775527e-06
7.37282221210195e-06
5.57476478904699e-06
2.1602982399645e-08
1.13614540295425e-10
1.08897616465134e-10
2.11523842801258e-08
5.51804386753895e-06
7.3427152901284e-06
8.01261855506728e-06
8.21705665789725e-06
8.27094162965475e-06
8.28360187380107e-06
8.28631889403526e-06
8.28686126401003e-06
8.28696324579768e-06
8.28698138219864e-06
8.28698432016382e-06
8.28698457452596e-06
8.28698438906678e-06
8.2869841695177e-06
8.2869839435609e-06
8.28698371791762e-06
8.28698349439442e-06
8.28698327541047e-06
8.28698306231229e-06
8.28698285739778e-06
8.28698266147729e-06
8.28698247638114e-06
8.28698230248822e-06
8.28698214116164e-06
8.28698199230845e-06
8.286981856811e-06
8.28698173415437e-06
8.28698162461719e-06
8.28698152692552e-06
8.28698144069353e-06
8.286981364886e-06
8.28698129929634e-06
8.28698124132013e-06
8.28698118301054e-06
8.28698106933735e-06
8.28698056041211e-06
8.2869776358289e-06
8.28696072025204e-06
8.28686614615136e-06
8.28636141314397e-06
8.28381818812997e-06
8.2718820274943e-06
8.22063667537578e-06
8.02420471585122e-06
7.37281968050233e-06
5.57476201182617e-06
2.16029657463738e-08
1.13614469615785e-10
1.08897526814845e-10
2.11523600251914e-08
5.51803890211077e-06