/*--------------------------------*- C++ -*----------------------------------*\
  =========                 |
  \\      /  F ield         | OpenFOAM: The Open Source CFD Toolbox
   \\    /   O peration     | Website:  https://openfoam.org
    \\  /    A nd           | Version:  10
     \\/     M anipulation  |
\*---------------------------------------------------------------------------*/
FoamFile
{
    format      ascii;
    class       volScalarField;
    location    "1.4";
    object      h;
}
// * * * * * * * * * * * * * * * * * * * * * * * * * * * * * * * * * * * * * //

dimensions      [0 2 -2 0 0 0 0];

internalField   nonuniform List<scalar> 
2500
(
7034.22365324121
6935.02542475434
6908.98956218431
6904.60980452175
6903.93149854718
6903.82141993574
6903.80247273194
6903.79763753588
6903.79493518582
6903.79377950706
6903.79203976151
6903.79086476121
6903.79014350213
6903.78920551372
6903.78833505908
6903.7873478117
6903.78685569188
6903.78622206579
6903.785506689
6903.78500369429
6903.78441972146
6903.78349320726
6903.78263932753
6903.78274184599
6903.78280660033
6903.78227836462
6903.78228041267
6903.78214087239
6903.7817082121
6903.78209306863
6903.78245265628
6903.78251872846
6903.78279796319
6903.78321439534
6903.78371895876
6903.78406970386
6903.78445575146
6903.78477430785
6903.78544432467
6903.78607195316
6903.78682117041
6903.78780182385
6903.78957070555
6903.79483289353
6903.82073688099
6903.95103778064
6904.6776688596
6909.11396392311
6935.5541933407
7034.27798943509
4178.35423882904
4033.55528894219
3951.26238389835
3933.5973583003
3930.1283516126
3929.46842815197
3929.34894128637
3929.32820517566
3929.32443039913
3929.32371864618
3929.32320563311
3929.32290122853
3929.32278998574
3929.32261415156
3929.32244810927
3929.3222524698
3929.32211541787
3929.32198384099
3929.32188213037
3929.32172643264
3929.32128719016
3929.32061240626
3929.31992482476
3929.32006170882
3929.32023351838
3929.31984656425
3929.31995172734
3929.31998925241
3929.31965474093
3929.3200380247
3929.32020006189
3929.31970397301
3929.3203799338
3929.32135367936
3929.32164223847
3929.32174649024
3929.32181503372
3929.32186752039
3929.32201382738
3929.32212671908
3929.32241322297
3929.32357251776
3929.32938167507
3929.35979563674
3929.51444922732
3930.26516355948
3933.85159365497
3951.38180623036
4034.94436899452
4183.6593939702
2710.66426782793
2615.08608543574
2557.56839131286
2543.45645651183
2540.59405112248
2540.03495745376
2539.93091287292
2539.91259493256
2539.90955270561
2539.90918784088
2539.90893430272
2539.9088002696
2539.90890590276
2539.90894223933
2539.90900688282
2539.90907151314
2539.90909637313
2539.90910404497
2539.90907143408
2539.90902835386
2539.90888410228
2539.9086562956
2539.9084497351
2539.90838214686
2539.90848914832
2539.90844830707
2539.90832999348
2539.90841785007
2539.90848805396
2539.90866416879
2539.90860179648
2539.90834023459
2539.90867187217
2539.90918494079
2539.9093240024
2539.90934500328
2539.90923084202
2539.90920635529
2539.9093059802
2539.90916393961
2539.90920610049
2539.91010367247
2539.91460737341
2539.9385621102
2540.06072038234
2540.65660999445
2543.52518087101
2557.50708058957
2616.1282515222
2718.59818349034
2129.39579420772
2085.66517124117
2064.64707303267
2058.83803233383
2057.65637598189
2057.42716232748
2057.38420451606
2057.37645609904
2057.37512665254
2057.37506034005
2057.37503899953
2057.37497175859
2057.3750221351
2057.37507727734
2057.37513141279
2057.37518327444
2057.37519040606
2057.37517898439
2057.37521114079
2057.37520663704
2057.37515235172
2057.37510752117
2057.37502576958
2057.37501986728
2057.37508000805
2057.37506202808
2057.37502175485
2057.37505283826
2057.37511118138
2057.37516416887
2057.37514687009
2057.37507145765
2057.37517340901
2057.37533742084
2057.3753876275
2057.37539500028
2057.37533745954
2057.37529828795
2057.37528561033
2057.37522533356
2057.37519049412
2057.37547168362
2057.37710421401
2057.38569911369
2057.43057337512
2057.65773440927
2058.80773725463
2064.58449952408
2086.15910910731
2134.69364018454
1935.59261329818
1919.53193638179
1913.46686387543
1911.56442951524
1911.16684481348
1911.08944891127
1911.07484599222
1911.07216444177
1911.07170468862
1911.0716915666
1911.07168710125
1911.07166847591
1911.07169097637
1911.07171759359
1911.07174200926
1911.07176269245
1911.0717643361
1911.07175666609
1911.07177609557
1911.07177482553
1911.07176028035
1911.07175552449
1911.0717323233
1911.07173737185
1911.07175475888
1911.07175129852
1911.07174034494
1911.07174848359
1911.07176946359
1911.07178629289
1911.07178282603
1911.07176485222
1911.0717919272
1911.07183318581
1911.07184710247
1911.07184277974
1911.07182729152
1911.07181146261
1911.0717965198
1911.07179264948
1911.07176466915
1911.07181812449
1911.07231611494
1911.07494823873
1911.0888255163
1911.16083659122
1911.53618661244
1913.42321591864
1919.69426290319
1938.05763173514
1878.47108206561
1873.39016807682
1871.85752923609
1871.31595527354
1871.19826522715
1871.17510659175
1871.17071406934
1871.16989898306
1871.16975939186
1871.1697567195
1871.16975651987
1871.16975268352
1871.1697616376
1871.16977135534
1871.1697794219
1871.16978482499
1871.16978534461
1871.169782751
1871.16978903428
1871.16978878583
1871.16978458989
1871.16978417741
1871.16977997207
1871.16978354977
1871.16978822434
1871.16978712263
1871.16978476985
1871.16978612222
1871.16979203845
1871.1697980202
1871.16979894465
1871.16979690966
1871.16980184411
1871.16980896738
1871.16981216849
1871.16981050034
1871.16980660043
1871.16980081638
1871.16979548944
1871.16979583361
1871.16979024238
1871.16979716439
1871.16992975606
1871.17066535064
1871.17455266637
1871.19500939661
1871.30304308186
1871.83861547651
1873.43066075068
1879.39411801441
1863.13031169377
1861.68880659376
1861.33065036325
1861.1907108296
1861.15894810252
1861.15259936936
1861.1513899898
1861.1511645451
1861.15112610705
1861.15112568473
1861.15112587103
1861.15112540616
1861.15112839981
1861.1511312881
1861.15113352448
1861.15113484975
1861.15113518998
1861.15113438594
1861.15113597811
1861.15113617186
1861.15113516308
1861.15113537882
1861.15113484539
1861.15113583226
1861.15113686395
1861.15113666171
1861.15113655391
1861.15113631478
1861.15113758169
1861.15113962046
1861.15114007954
1861.15113996456
1861.15114083535
1861.15114196014
1861.15114258965
1861.1511422178
1861.15114120937
1861.15113946528
1861.15113780879
1861.15113801086
1861.15113709768
1861.15113719504
1861.15117076825
1861.15136251798
1861.15237653984
1861.15774889557
1861.18620347855
1861.32442218776
1861.69624464224
1863.42827368931
1859.29959459985
1858.92336877412
1858.8434417638
1858.80976640381
1858.80178286265
1858.80015662117
1858.79984548643
1858.79978744971
1858.799777602
1858.79977753972
1858.79977764128
1858.7997776837
1858.79977856832
1858.7997793284
1858.79977989534
1858.79978020684
1858.79978036927
1858.79978014202
1858.79978046835
1858.79978067103
1858.79978058312
1858.79978062885
1858.79978048929
1858.79978075528
1858.79978099051
1858.79978084637
1858.79978081331
1858.79978074172
1858.799781131
1858.79978164461
1858.79978176809
1858.79978179273
1858.79978196735
1858.79978212014
1858.7997822109
1858.7997821389
1858.7997818898
1858.79978138803
1858.79978094641
1858.79978101423
1858.79978083675
1858.79978061332
1858.79978871352
1858.79983591762
1858.8000855789
1858.80141143356
1858.80841349596
1858.84168810806
1858.92404095219
1859.38583722788
1858.39746553881
1858.30556314518
1858.28820959065
1858.28053532215
1858.27863973462
1858.27824538295
1858.27816953155
1858.27815540164
1858.27815301376
1858.27815300098
1858.2781530374
1858.2781530846
1858.27815332152
1858.2781535056
1858.27815364067
1858.2781537118
1858.27815376904
1858.27815371202
1858.27815376761
1858.27815384698
1858.27815386449
1858.27815388999
1858.27815387844
1858.27815393141
1858.2781539547
1858.2781539039
1858.27815392733
1858.27815394261
1858.27815401445
1858.27815410185
1858.27815412567
1858.27815413193
1858.27815417214
1858.27815416254
1858.27815413726
1858.27815414939
1858.27815413085
1858.2781540334
1858.2781539562
1858.27815393683
1858.27815386103
1858.27815377594
1858.27815564608
1858.27816670223
1858.27822518512
1858.27853574795
1858.28016641964
1858.28775565747
1858.3053702496
1858.42041388909
1858.19501217776
1858.17374164026
1858.17004052438
1858.16836525395
1858.16793577901
1858.1678444182
1858.16782672241
1858.16782343108
1858.16782287621
1858.1678228758
1858.16782288965
1858.16782290331
1858.16782295727
1858.16782299842
1858.16782302877
1858.16782304436
1858.16782306106
1858.16782304872
1858.16782305489
1858.16782307714
1858.16782308991
1858.16782309879
1858.16782309995
1858.16782310845
1858.16782310828
1858.16782309577
1858.16782310612
1858.16782311459
1858.167823126
1858.16782313604
1858.16782313708
1858.16782313455
1858.16782314616
1858.16782314189
1858.16782312824
1858.16782314321
1858.16782314157
1858.1678231193
1858.16782310628
1858.16782309344
1858.16782307572
1858.16782305366
1858.167823469
1858.16782594702
1858.16783905547
1858.16790857455
1858.16827110208
1858.16992758463
1858.1736043084
1858.20072227915
1858.15137538405
1858.14666839799
1858.14588986553
1858.14553668215
1858.14544313716
1858.14542277968
1858.14541880092
1858.14541806082
1858.14541793558
1858.14541793428
1858.14541793744
1858.14541794058
1858.14541795154
1858.14541795995
1858.14541796608
1858.14541796911
1858.14541797309
1858.14541797013
1858.14541797001
1858.14541797541
1858.14541797934
1858.14541798146
1858.14541798226
1858.14541798285
1858.14541798231
1858.14541797989
1858.14541798208
1858.14541798457
1858.14541798618
1858.1454179866
1858.14541798634
1858.14541798488
1858.14541798707
1858.14541798677
1858.14541798366
1858.14541798779
1858.14541798774
1858.14541798372
1858.14541798101
1858.14541797762
1858.14541797436
1858.14541797006
1858.14541805993
1858.14541859462
1858.14542141975
1858.1454363711
1858.14551380294
1858.14586223339
1858.14661547694
1858.15272030682
1858.14228702425
1858.14128420367
1858.14112242175
1858.14105005562
1858.14103035203
1858.14102596599
1858.1410250986
1858.14102493635
1858.14102490804
1858.14102490637
1858.14102490614
1858.1410249061
1858.14102490763
1858.14102490875
1858.14102490953
1858.14102490967
1858.14102491013
1858.14102490909
1858.14102490852
1858.14102490937
1858.14102490995
1858.14102491016
1858.14102491031
1858.1410249102
1858.14102490983
1858.14102490902
1858.14102490932
1858.14102490962
1858.14102490976
1858.14102490988
1858.14102490972
1858.14102490908
1858.14102490961
1858.14102490963
1858.14102490888
1858.14102491013
1858.14102491042
1858.14102491001
1858.14102490961
1858.14102490931
1858.14102490917
1858.14102490921
1858.14102492913
1858.14102504134
1858.14102563004
1858.14102873414
1858.14104470625
1858.14111572781
1858.14126774135
1858.14258961025
1858.14044920304
1858.14024239744
1858.14020905432
1858.1401945453
1858.14019050999
1858.1401895916
1858.14018940664
1858.14018937093
1858.14018936372
1858.14018936217
1858.14018936118
1858.14018936033
1858.14018935983
1858.14018935937
1858.1401893589
1858.14018935837
1858.14018935796
1858.14018935726
1858.14018935669
1858.14018935647
1858.14018935623
1858.14018935595
1858.1401893557
1858.14018935541
1858.14018935508
1858.14018935472
1858.1401893546
1858.1401893545
1858.14018935442
1858.14018935436
1858.14018935427
1858.14018935411
1858.14018935424
1858.14018935436
1858.14018935438
1858.14018935482
1858.14018935518
1858.14018935548
1858.14018935585
1858.14018935635
1858.14018935699
1858.14018935795
1858.14018936295
1858.14018938665
1858.14018950656
1858.14019013204
1858.1401933308
1858.14020744944
1858.1402378566
1858.14051467861
1858.14008697783
1858.14004552055
1858.14003855829
1858.14003566707
1858.14003485681
1858.14003466836
1858.14003462876
1858.14003462
1858.14003461727
1858.14003461583
1858.14003461464
1858.14003461358
1858.14003461267
1858.14003461184
1858.14003461109
1858.14003461038
1858.14003460974
1858.1400346091
1858.14003460851
1858.14003460804
1858.1400346076
1858.14003460719
1858.14003460682
1858.14003460648
1858.14003460615
1858.14003460586
1858.14003460565
1858.14003460547
1858.14003460534
1858.14003460525
1858.14003460519
1858.14003460516
1858.14003460524
1858.14003460536
1858.14003460553
1858.14003460585
1858.14003460621
1858.14003460665
1858.1400346072
1858.14003460788
1858.14003460871
1858.14003460976
1858.14003461174
1858.14003461755
1858.14003464231
1858.14003476598
1858.14003539408
1858.14003817571
1858.14004435986
1858.14010067194
1858.14001717431
1858.1400090708
1858.14000744795
1858.14000683875
1858.14000667507
1858.14000663619
1858.14000662681
1858.14000662369
1858.1400066219
1858.1400066205
1858.14000661925
1858.14000661813
1858.14000661712
1858.1400066162
1858.14000661537
1858.14000661459
1858.14000661389
1858.14000661323
1858.14000661263
1858.14000661209
1858.14000661159
1858.14000661114
1858.14000661073
1858.14000661036
1858.14000661003
1858.14000660974
1858.14000660949
1858.1400066093
1858.14000660915
1858.14000660905
1858.140006609
1858.140006609
1858.14000660907
1858.1400066092
1858.1400066094
1858.1400066097
1858.14000661008
1858.14000661055
1858.14000661114
1858.14000661186
1858.14000661273
1858.14000661378
1858.14000661514
1858.14000661739
1858.14000662334
1858.14000664824
1858.14000677342
1858.14000735364
1858.14000878324
1858.14001994696
1858.1400039878
1858.14000244257
1858.14000188395
1858.14000171458
1858.14000167768
1858.1400016688
1858.14000166563
1858.14000166369
1858.14000166212
1858.14000166072
1858.14000165946
1858.14000165831
1858.14000165727
1858.14000165631
1858.14000165544
1858.14000165463
1858.14000165389
1858.14000165321
1858.14000165259
1858.14000165202
1858.14000165149
1858.14000165102
1858.14000165059
1858.1400016502
1858.14000164986
1858.14000164956
1858.14000164931
1858.1400016491
1858.14000164894
1858.14000164884
1858.14000164879
1858.14000164879
1858.14000164886
1858.140001649
1858.14000164921
1858.14000164951
1858.1400016499
1858.14000165039
1858.14000165099
1858.14000165172
1858.14000165259
1858.14000165362
1858.14000165484
1858.14000165635
1858.1400016586
1858.14000166447
1858.1400016936
1858.14000185589
1858.14000236543
1858.14000452495
1858.14000154052
1858.14000125626
1858.14000090654
1858.14000082063
1858.1400008082
1858.1400008053
1858.14000080342
1858.14000080176
1858.14000080025
1858.14000079887
1858.1400007976
1858.14000079644
1858.14000079537
1858.14000079439
1858.14000079349
1858.14000079266
1858.1400007919
1858.1400007912
1858.14000079055
1858.14000078996
1858.14000078942
1858.14000078893
1858.14000078848
1858.14000078808
1858.14000078773
1858.14000078742
1858.14000078716
1858.14000078695
1858.14000078678
1858.14000078667
1858.14000078662
1858.14000078663
1858.1400007867
1858.14000078684
1858.14000078706
1858.14000078736
1858.14000078776
1858.14000078825
1858.14000078886
1858.14000078959
1858.14000079045
1858.14000079146
1858.14000079262
1858.14000079394
1858.14000079542
1858.14000079762
1858.14000080869
1858.14000089311
1858.1400012269
1858.14000163165
1858.14000109351
1858.14000104701
1858.14000073773
1858.14000066752
1858.14000065983
1858.14000065817
1858.14000065661
1858.14000065505
1858.14000065357
1858.1400006522
1858.14000065093
1858.14000064975
1858.14000064867
1858.14000064767
1858.14000064675
1858.14000064591
1858.14000064512
1858.1400006444
1858.14000064374
1858.14000064313
1858.14000064258
1858.14000064207
1858.14000064161
1858.1400006412
1858.14000064084
1858.14000064052
1858.14000064025
1858.14000064003
1858.14000063986
1858.14000063975
1858.1400006397
1858.1400006397
1858.14000063978
1858.14000063992
1858.14000064014
1858.14000064045
1858.14000064085
1858.14000064135
1858.14000064195
1858.14000064268
1858.14000064353
1858.14000064452
1858.14000064564
1858.14000064687
1858.14000064814
1858.14000064957
1858.1400006572
1858.14000072726
1858.14000102776
1858.14000109739
1858.14000101307
1858.14000101068
1858.14000070917
1858.14000064195
1858.14000063525
1858.1400006339
1858.14000063246
1858.14000063096
1858.14000062951
1858.14000062815
1858.14000062688
1858.1400006257
1858.1400006246
1858.14000062359
1858.14000062265
1858.14000062179
1858.14000062099
1858.14000062025
1858.14000061958
1858.14000061895
1858.14000061838
1858.14000061787
1858.14000061739
1858.14000061697
1858.1400006166
1858.14000061628
1858.140000616
1858.14000061578
1858.14000061561
1858.14000061549
1858.14000061544
1858.14000061544
1858.14000061552
1858.14000061566
1858.14000061589
1858.1400006162
1858.1400006166
1858.1400006171
1858.14000061771
1858.14000061843
1858.14000061927
1858.14000062024
1858.14000062132
1858.14000062249
1858.14000062366
1858.14000062485
1858.14000063177
1858.14000069912
1858.14000099325
1858.14000099997
1858.14000099883
1858.14000100456
1858.14000070456
1858.14000063797
1858.14000063153
1858.14000063031
1858.14000062894
1858.14000062748
1858.14000062606
1858.14000062471
1858.14000062344
1858.14000062225
1858.14000062115
1858.14000062013
1858.14000061918
1858.1400006183
1858.14000061749
1858.14000061674
1858.14000061605
1858.14000061541
1858.14000061483
1858.1400006143
1858.14000061382
1858.14000061339
1858.14000061301
1858.14000061268
1858.1400006124
1858.14000061218
1858.140000612
1858.14000061188
1858.14000061183
1858.14000061183
1858.14000061191
1858.14000061206
1858.14000061228
1858.1400006126
1858.140000613
1858.1400006135
1858.14000061411
1858.14000061483
1858.14000061566
1858.1400006166
1858.14000061765
1858.14000061877
1858.14000061987
1858.14000062095
1858.14000062764
1858.14000069441
1858.14000098723
1858.14000098227
1858.14000099637
1858.14000100362
1858.14000070395
1858.14000063753
1858.14000063121
1858.14000063007
1858.14000062876
1858.14000062734
1858.14000062594
1858.14000062459
1858.14000062333
1858.14000062214
1858.14000062103
1858.14000062
1858.14000061904
1858.14000061815
1858.14000061733
1858.14000061656
1858.14000061586
1858.14000061522
1858.14000061463
1858.14000061409
1858.14000061361
1858.14000061317
1858.14000061279
1858.14000061245
1858.14000061217
1858.14000061193
1858.14000061176
1858.14000061164
1858.14000061158
1858.14000061159
1858.14000061166
1858.14000061181
1858.14000061204
1858.14000061236
1858.14000061276
1858.14000061327
1858.14000061387
1858.14000061458
1858.1400006154
1858.14000061633
1858.14000061735
1858.14000061843
1858.14000061946
1858.14000062046
1858.14000062704
1858.14000069363
1858.1400009861
1858.14000097896
1858.14000099597
1858.14000100354
1858.14000070396
1858.14000063763
1858.14000063138
1858.14000063029
1858.14000062902
1858.14000062763
1858.14000062625
1858.14000062492
1858.14000062366
1858.14000062247
1858.14000062135
1858.14000062031
1858.14000061934
1858.14000061845
1858.14000061762
1858.14000061685
1858.14000061614
1858.14000061549
1858.14000061489
1858.14000061435
1858.14000061386
1858.14000061341
1858.14000061303
1858.14000061269
1858.1400006124
1858.14000061216
1858.14000061199
1858.14000061187
1858.14000061181
1858.14000061182
1858.14000061189
1858.14000061204
1858.14000061227
1858.14000061259
1858.140000613
1858.1400006135
1858.14000061411
1858.14000061481
1858.14000061562
1858.14000061653
1858.14000061753
1858.14000061858
1858.14000061956
1858.1400006205
1858.14000062701
1858.1400006935
1858.14000098582
1858.14000097823
1858.14000099589
1858.14000100356
1858.14000070403
1858.14000063774
1858.14000063154
1858.1400006305
1858.14000062927
1858.1400006279
1858.14000062653
1858.1400006252
1858.14000062394
1858.14000062275
1858.14000062163
1858.14000062059
1858.14000061962
1858.14000061872
1858.14000061788
1858.1400006171
1858.14000061639
1858.14000061573
1858.14000061513
1858.14000061459
1858.14000061409
1858.14000061365
1858.14000061326
1858.14000061291
1858.14000061263
1858.14000061239
1858.14000061221
1858.14000061209
1858.14000061203
1858.14000061204
1858.14000061212
1858.14000061227
1858.1400006125
1858.14000061282
1858.14000061323
1858.14000061373
1858.14000061433
1858.14000061504
1858.14000061584
1858.14000061674
1858.14000061772
1858.14000061874
1858.14000061969
1858.14000062058
1858.14000062703
1858.14000069347
1858.14000098569
1858.14000097799
1858.14000099585
1858.14000100354
1858.14000070405
1858.1400006378
1858.14000063164
1858.14000063063
1858.14000062941
1858.14000062805
1858.1400006267
1858.14000062538
1858.14000062412
1858.14000062293
1858.14000062181
1858.14000062076
1858.14000061979
1858.14000061888
1858.14000061804
1858.14000061726
1858.14000061655
1858.14000061589
1858.14000061528
1858.14000061474
1858.14000061424
1858.14000061379
1858.1400006134
1858.14000061306
1858.14000061277
1858.14000061253
1858.14000061235
1858.14000061223
1858.14000061218
1858.14000061218
1858.14000061226
1858.14000061241
1858.14000061265
1858.14000061297
1858.14000061338
1858.14000061388
1858.14000061448
1858.14000061518
1858.14000061598
1858.14000061687
1858.14000061784
1858.14000061884
1858.14000061977
1858.14000062063
1858.14000062705
1858.14000069344
1858.1400009856
1858.14000097787
1858.14000099577
1858.14000100348
1858.14000070402
1858.1400006378
1858.14000063165
1858.14000063065
1858.14000062944
1858.14000062809
1858.14000062674
1858.14000062543
1858.14000062417
1858.14000062298
1858.14000062186
1858.14000062081
1858.14000061984
1858.14000061893
1858.14000061809
1858.14000061731
1858.14000061659
1858.14000061593
1858.14000061533
1858.14000061478
1858.14000061428
1858.14000061384
1858.14000061344
1858.1400006131
1858.14000061281
1858.14000061258
1858.1400006124
1858.14000061228
1858.14000061222
1858.14000061223
1858.14000061231
1858.14000061247
1858.1400006127
1858.14000061302
1858.14000061343
1858.14000061394
1858.14000061454
1858.14000061524
1858.14000061603
1858.14000061692
1858.14000061788
1858.14000061887
1858.14000061978
1858.14000062063
1858.14000062703
1858.1400006934
1858.14000098552
1858.14000097777
1858.14000099564
1858.14000100335
1858.14000070394
1858.14000063772
1858.14000063157
1858.14000063057
1858.14000062936
1858.14000062802
1858.14000062666
1858.14000062535
1858.14000062409
1858.1400006229
1858.14000062178
1858.14000062074
1858.14000061976
1858.14000061886
1858.14000061802
1858.14000061724
1858.14000061653
1858.14000061587
1858.14000061527
1858.14000061472
1858.14000061423
1858.14000061378
1858.14000061339
1858.14000061305
1858.14000061276
1858.14000061253
1858.14000061235
1858.14000061223
1858.14000061218
1858.14000061219
1858.14000061227
1858.14000061242
1858.14000061266
1858.14000061298
1858.14000061339
1858.1400006139
1858.1400006145
1858.1400006152
1858.140000616
1858.14000061688
1858.14000061784
1858.14000061883
1858.14000061974
1858.14000062059
1858.14000062699
1858.14000069336
1858.14000098545
1858.1400009777
1858.14000099547
1858.14000100316
1858.14000070379
1858.14000063757
1858.1400006314
1858.14000063039
1858.14000062917
1858.14000062782
1858.14000062646
1858.14000062514
1858.14000062389
1858.1400006227
1858.14000062158
1858.14000062054
1858.14000061957
1858.14000061867
1858.14000061783
1858.14000061706
1858.14000061635
1858.1400006157
1858.1400006151
1858.14000061455
1858.14000061406
1858.14000061362
1858.14000061323
1858.1400006129
1858.14000061261
1858.14000061238
1858.14000061221
1858.14000061209
1858.14000061204
1858.14000061205
1858.14000061213
1858.14000061229
1858.14000061252
1858.14000061284
1858.14000061326
1858.14000061376
1858.14000061437
1858.14000061507
1858.14000061587
1858.14000061676
1858.14000061772
1858.14000061872
1858.14000061964
1858.1400006205
1858.14000062692
1858.14000069329
1858.14000098538
1858.14000097765
1858.14000099525
1858.14000100291
1858.14000070358
1858.14000063735
1858.14000063115
1858.14000063011
1858.14000062887
1858.1400006275
1858.14000062613
1858.14000062481
1858.14000062355
1858.14000062237
1858.14000062126
1858.14000062022
1858.14000061925
1858.14000061836
1858.14000061753
1858.14000061676
1858.14000061606
1858.14000061541
1858.14000061482
1858.14000061428
1858.1400006138
1858.14000061336
1858.14000061298
1858.14000061264
1858.14000061236
1858.14000061213
1858.14000061196
1858.14000061185
1858.1400006118
1858.14000061181
1858.14000061189
1858.14000061205
1858.14000061229
1858.14000061261
1858.14000061302
1858.14000061353
1858.14000061414
1858.14000061484
1858.14000061564
1858.14000061654
1858.14000061752
1858.14000061854
1858.14000061948
1858.14000062037
1858.14000062682
1858.14000069322
1858.14000098533
1858.14000097762
1858.140000995
1858.14000100261
1858.14000070332
1858.14000063706
1858.14000063081
1858.14000062973
1858.14000062846
1858.14000062707
1858.14000062568
1858.14000062436
1858.1400006231
1858.14000062191
1858.1400006208
1858.14000061977
1858.14000061881
1858.14000061793
1858.14000061711
1858.14000061635
1858.14000061566
1858.14000061502
1858.14000061443
1858.1400006139
1858.14000061343
1858.140000613
1858.14000061262
1858.14000061229
1858.14000061202
1858.14000061179
1858.14000061162
1858.14000061151
1858.14000061146
1858.14000061148
1858.14000061156
1858.14000061172
1858.14000061196
1858.14000061228
1858.14000061269
1858.1400006132
1858.14000061381
1858.14000061452
1858.14000061533
1858.14000061624
1858.14000061724
1858.14000061828
1858.14000061926
1858.14000062019
1858.14000062669
1858.14000069314
1858.14000098529
1858.14000097763
1858.14000099473
1858.14000100227
1858.14000070301
1858.1400006367
1858.14000063038
1858.14000062925
1858.14000062793
1858.14000062651
1858.14000062511
1858.14000062377
1858.14000062251
1858.14000062133
1858.14000062023
1858.14000061921
1858.14000061826
1858.14000061738
1858.14000061657
1858.14000061583
1858.14000061514
1858.14000061452
1858.14000061394
1858.14000061342
1858.14000061295
1858.14000061253
1858.14000061216
1858.14000061184
1858.14000061157
1858.14000061135
1858.14000061119
1858.14000061108
1858.14000061104
1858.14000061105
1858.14000061114
1858.1400006113
1858.14000061154
1858.14000061186
1858.14000061227
1858.14000061278
1858.14000061339
1858.1400006141
1858.14000061493
1858.14000061585
1858.14000061687
1858.14000061795
1858.14000061897
1858.14000061996
1858.14000062653
1858.14000069305
1858.14000098527
1858.14000097768
1858.14000099445
1858.14000100189
1858.14000070265
1858.14000063627
1858.14000062987
1858.14000062866
1858.1400006273
1858.14000062584
1858.14000062442
1858.14000062307
1858.1400006218
1858.14000062062
1858.14000061953
1858.14000061852
1858.14000061759
1858.14000061672
1858.14000061593
1858.1400006152
1858.14000061453
1858.14000061391
1858.14000061335
1858.14000061284
1858.14000061238
1858.14000061197
1858.14000061161
1858.1400006113
1858.14000061103
1858.14000061082
1858.14000061066
1858.14000061056
1858.14000061052
1858.14000061054
1858.14000061062
1858.14000061078
1858.14000061102
1858.14000061134
1858.14000061175
1858.14000061226
1858.14000061288
1858.1400006136
1858.14000061443
1858.14000061537
1858.14000061642
1858.14000061754
1858.14000061862
1858.14000061969
1858.14000062634
1858.14000069296
1858.14000098529
1858.14000097777
1858.14000099417
1858.1400010015
1858.14000070226
1858.14000063578
1858.14000062928
1858.14000062798
1858.14000062655
1858.14000062505
1858.1400006236
1858.14000062223
1858.14000062097
1858.1400006198
1858.14000061871
1858.14000061772
1858.1400006168
1858.14000061595
1858.14000061517
1858.14000061446
1858.1400006138
1858.1400006132
1858.14000061266
1858.14000061216
1858.14000061171
1858.14000061131
1858.14000061096
1858.14000061066
1858.1400006104
1858.1400006102
1858.14000061005
1858.14000060995
1858.14000060991
1858.14000060993
1858.14000061002
1858.14000061018
1858.14000061041
1858.14000061073
1858.14000061114
1858.14000061165
1858.14000061227
1858.14000061299
1858.14000061384
1858.1400006148
1858.14000061589
1858.14000061705
1858.14000061821
1858.14000061936
1858.14000062613
1858.14000069287
1858.14000098535
1858.14000097794
1858.14000099392
1858.14000100111
1858.14000070182
1858.14000063523
1858.14000062859
1858.14000062719
1858.14000062568
1858.14000062413
1858.14000062265
1858.14000062128
1858.14000062001
1858.14000061885
1858.14000061778
1858.1400006168
1858.1400006159
1858.14000061507
1858.14000061431
1858.14000061362
1858.14000061298
1858.1400006124
1858.14000061187
1858.14000061138
1858.14000061095
1858.14000061056
1858.14000061022
1858.14000060993
1858.14000060968
1858.14000060949
1858.14000060934
1858.14000060925
1858.14000060921
1858.14000060923
1858.14000060932
1858.14000060948
1858.14000060972
1858.14000061004
1858.14000061044
1858.14000061095
1858.14000061157
1858.1400006123
1858.14000061316
1858.14000061414
1858.14000061526
1858.14000061649
1858.14000061772
1858.14000061899
1858.1400006259
1858.14000069278
1858.14000098547
1858.1400009782
1858.14000099374
1858.14000100075
1858.14000070137
1858.14000063462
1858.14000062782
1858.14000062629
1858.1400006247
1858.1400006231
1858.14000062159
1858.14000062021
1858.14000061894
1858.14000061779
1858.14000061673
1858.14000061577
1858.14000061489
1858.14000061408
1858.14000061335
1858.14000061267
1858.14000061206
1858.14000061149
1858.14000061098
1858.14000061051
1858.1400006101
1858.14000060972
1858.1400006094
1858.14000060911
1858.14000060888
1858.14000060869
1858.14000060855
1858.14000060846
1858.14000060843
1858.14000060845
1858.14000060854
1858.1400006087
1858.14000060893
1858.14000060925
1858.14000060966
1858.14000061016
1858.14000061078
1858.14000061151
1858.14000061238
1858.14000061339
1858.14000061455
1858.14000061583
1858.14000061716
1858.14000061855
1858.14000062563
1858.14000069272
1858.14000098568
1858.14000097858
1858.14000099367
1858.14000100045
1858.14000070089
1858.14000063394
1858.14000062695
1858.14000062528
1858.14000062359
1858.14000062193
1858.1400006204
1858.14000061901
1858.14000061775
1858.14000061661
1858.14000061557
1858.14000061463
1858.14000061378
1858.140000613
1858.14000061228
1858.14000061163
1858.14000061104
1858.14000061049
1858.14000061
1858.14000060955
1858.14000060915
1858.1400006088
1858.14000060848
1858.14000060821
1858.14000060799
1858.1400006078
1858.14000060767
1858.14000060759
1858.14000060756
1858.14000060759
1858.14000060768
1858.14000060783
1858.14000060806
1858.14000060838
1858.14000060878
1858.14000060928