/*--------------------------------*- C++ -*----------------------------------*\
  =========                 |
  \\      /  F ield         | OpenFOAM: The Open Source CFD Toolbox
   \\    /   O peration     | Website:  https://openfoam.org
    \\  /    A nd           | Version:  10
     \\/     M anipulation  |
\*---------------------------------------------------------------------------*/
FoamFile
{
    format      ascii;
    class       volScalarField;
    location    "1.4";
    object      k;
}
// * * * * * * * * * * * * * * * * * * * * * * * * * * * * * * * * * * * * * //

dimensions      [0 2 -2 0 0 0 0];

internalField   nonuniform List<scalar> 
2500
(
2.39627835666876e-07
4.93535085360818e-07
9.89995992053719e-07
1.21378936482873e-06
1.2853588925096e-06
1.30395557600925e-06
1.3081151943495e-06
1.30894533332006e-06
1.30909665112874e-06
1.30912230950524e-06
1.30912589011023e-06
1.30912565512021e-06
1.30912518263435e-06
1.30912467153999e-06
1.30912412802853e-06
1.30912364307972e-06
1.30912329380857e-06
1.30912301496878e-06
1.30912277325957e-06
1.30912255613878e-06
1.30912235949827e-06
1.30912218117231e-06
1.30912202100109e-06
1.309121879454e-06
1.30912175559587e-06
1.30912164881495e-06
1.30912156029227e-06
1.30912149030398e-06
1.30912143926351e-06
1.30912141093757e-06
1.30912143664509e-06
1.30912154240673e-06
1.3091216119645e-06
1.30912164974638e-06
1.30912177611898e-06
1.30912195525539e-06
1.30912219441526e-06
1.30912244504449e-06
1.30912252847843e-06
1.30912137883654e-06
1.30911176819797e-06
1.30906005283693e-06
1.30880245277201e-06
1.30759539517199e-06
1.30236182411049e-06
1.28173032500266e-06
1.20971305674389e-06
9.96155361445799e-07
5.05291350912176e-07
2.43288598761723e-07
8.19457073003482e-07
6.85449632281634e-06
2.08143228781507e-05
2.75388108316398e-05
2.9820093977001e-05
3.04410056306673e-05
3.05850089210434e-05
3.06145829132705e-05
3.06201030529451e-05
3.06210538645065e-05
3.06211919673979e-05
3.0621193064647e-05
3.06211807856371e-05
3.06211670392903e-05
3.06211530660709e-05
3.06211407108801e-05
3.06211311796819e-05
3.06211235036718e-05
3.06211169158399e-05
3.06211110820731e-05
3.06211058691617e-05
3.06211012208984e-05
3.06210971049913e-05
3.06210935085624e-05
3.06210904241016e-05
3.06210878586084e-05
3.06210858112787e-05
3.06210843035144e-05
3.06210833534825e-05
3.06210830506273e-05
3.06210847684213e-05
3.06210887085901e-05
3.06210904367827e-05
3.06210918058257e-05
3.06210962396366e-05
3.06211016715878e-05
3.06211069032836e-05
3.06211135949098e-05
3.06211160401744e-05
3.06210680531421e-05
3.06207174761311e-05
3.0618870917926e-05
3.06097919443856e-05
3.05680515076896e-05
3.03912249384974e-05
2.97142296038106e-05
2.74387524001519e-05
2.10225011854158e-05
7.18004157088465e-06
8.82505245025906e-07
1.56392997770401e-06
2.51740005306217e-05
9.10698361105566e-05
0.00012190917039742
0.000132733190894101
0.000135804006464181
0.000136544425587965
0.00013670182347179
0.000136732115285478
0.000136737480520926
0.000136738311303595
0.000136738366134417
0.000136738326450789
0.000136738276155855
0.000136738225191847
0.000136738180007812
0.000136738143872441
0.000136738114431829
0.00013673808914281
0.000136738066737093
0.00013673804666893
0.000136738028723571
0.000136738012772757
0.000136737998771373
0.000136737986686873
0.000136737976535687
0.000136737968314745
0.000136737962101975
0.000136737957961926
0.000136737956175602
0.000136737958714649
0.000136737972120247
0.000136737984314922
0.000136737985025095
0.000136737999397818
0.000136738014983811
0.000136738036564554
0.000136738054448906
0.000136738051205868
0.000136737765568701
0.000136735914762436
0.000136726351690933
0.000136679845464583
0.0001364690658577
0.000135591682303606
0.000132305347514169
0.000121543374454123
9.19381306382907e-05
2.62722960507451e-05
1.69232285467085e-06
2.13202759621415e-06
3.97637114261685e-05
0.00014487311709857
0.000192908442368857
0.000209899955434808
0.000214802963452858
0.000216009575731638
0.0002162716916741
0.000216323259837817
0.000216332600660964
0.000216334106036822
0.000216334253520912
0.000216334211597785
0.000216334147090693
0.000216334080768831
0.000216334021651505
0.000216333973398286
0.000216333933448859
0.000216333898796185
0.000216333867860646
0.00021633383993512
0.000216333814750753
0.000216333792140156
0.00021633377205122
0.000216333754434057
0.000216333739303351
0.00021633372664981
0.00021633371656358
0.000216333709107258
0.000216333704535189
0.000216333704305168
0.000216333719269755
0.000216333730831403
0.000216333734405408
0.000216333744667064
0.000216333764361099
0.000216333785057779
0.000216333803413056
0.000216333788293238
0.000216333336457231
0.000216330564377001
0.000216316125674544
0.000216245146206187
0.00021592023463192
0.000214555713822979
0.000209408678910607
0.000192471249814152
0.000145700063675874
4.08535374621977e-05
2.25986063362607e-06
2.49973912813493e-06
4.98535855593065e-05
0.00018269016200008
0.000242657721076518
0.000264046114105182
0.000270306957726672
0.000271874574847769
0.000272221575195384
0.000272291199604073
0.000272304073520155
0.000272306227859105
0.000272306492910283
0.000272306464015604
0.000272306401218483
0.000272306334820207
0.000272306274938019
0.000272306224940786
0.000272306182725933
0.000272306145614463
0.000272306112139016
0.000272306081619341
0.000272306053808002
0.000272306028544279
0.000272306005791474
0.000272305985496803
0.00027230596768329
0.000272305952339027
0.00027230593954827
0.000272305929358792
0.000272305921957876
0.000272305918120469
0.00027230592441789
0.000272305932739308
0.000272305939459875
0.000272305945067576
0.000272305960161304
0.000272305977555384
0.000272305988888812
0.000272305949763519
0.000272305381848573
0.000272302044404068
0.000272284492925329
0.000272197449320804
0.000271795601968317
0.000270095127551584
0.000263643395299329
0.000242340836918561
0.000183455782937174
5.08079844712485e-05
2.61804861924361e-06
2.71629917825567e-06
5.61640284586288e-05
0.000207196818721114
0.000275031288165925
0.000299412718116461
0.000306634596465398
0.000308468693987659
0.000308881105986279
0.000308965253686343
0.000308981094924753
0.000308983828951732
0.000308984210696431
0.000308984208122621
0.000308984155792874
0.000308984097518576
0.000308984043971035
0.000308983998066977
0.000308983958394881
0.000308983922935109
0.000308983890544515
0.000308983860672201
0.000308983833135347
0.000308983807807852
0.00030898378468042
0.000308983763709924
0.000308983744932467
0.000308983728336024
0.000308983713996352
0.00030898370194422
0.000308983692312605
0.000308983685408148
0.000308983683540997
0.000308983687115172
0.000308983691114784
0.000308983697278076
0.000308983703220099
0.000308983713431209
0.000308983719875784
0.000308983650974851
0.00030898300467644
0.000308979330133929
0.000308959853258026
0.000308862665611697
0.000308411230584659
0.000306490593919009
0.000299174895087762
0.000274975237937067
0.000208098120845262
5.70774622383988e-05
2.83064872417853e-06
2.83537726726604e-06
5.98169683294476e-05
0.00022201587452415
0.000294778483959613
0.000321101596543728
0.000328971694817039
0.000330992996036209
0.00033145328331613
0.000331548501372447
0.000331566699502438
0.000331569915960659
0.000331570402734521
0.000331570428595641
0.000331570389497694
0.000331570341886283
0.000331570296970579
0.00033157025729348
0.000331570222088337
0.000331570190013525
0.000331570160294396
0.000331570132540614
0.000331570106647963
0.000331570082533802
0.000331570060219212
0.000331570039676445
0.000331570020954231
0.000331570004042325
0.000331569989009974
0.000331569975872665
0.0003315699647311
0.000331569955710022
0.000331569949620297
0.000331569946854983
0.00033156994782436
0.000331569947334379
0.00033156995063516
0.000331569954627137
0.000331569950789462
0.000331569852376298
0.000331569169268841
0.000331565296549335
0.0003315446833433
0.000331441410942466
0.000330959724519127
0.000328902976748832
0.000321049022770924
0.000295043024141956
0.000223209786818749
6.0786118424825e-05
2.9507896306602e-06
2.89738996323716e-06
6.18042180423606e-05
0.000230457711543302
0.000306158499618031
0.000333682867467714
0.00034196992389208
0.000344116521430005
0.00034461014608719
0.000344713379426305
0.000344733352407623
0.000344736946430684
0.000344737519223635
0.000344737570853825
0.000344737544112959
0.00034473750640411
0.000344737469607508
0.000344737436039528
0.000344737405419482
0.000344737376953095
0.000344737350184571
0.000344737324871061
0.000344737300980957
0.000344737278472042
0.000344737257392372
0.000344737237729521
0.000344737219542671
0.00034473720282395
0.000344737187638131
0.000344737173988437
0.000344737161953986
0.000344737151583749
0.00034473714319202
0.000344737136958984
0.000344737133132287
0.000344737130236733
0.000344737129552249
0.000344737128387751
0.000344737114496789
0.000344737001863121
0.000344736295505429
0.000344732309055391
0.000344711058226537
0.000344604327131361
0.000344105192635022
0.000341969034571057
0.000333798945331195
0.000306730763394463
0.000231992618026378
6.28711412683661e-05
3.01592906714764e-06
2.92827538782996e-06
6.28315408850042e-05
0.000235025210728504
0.000312398364913599
0.000340633116637542
0.000349176512675354
0.000351403200577393
0.000351918971063768
0.000352027733614033
0.000352048977646585
0.000352052851309869
0.000352053490300733
0.000352053562702189
0.000352053545752444
0.000352053515838577
0.000352053485480781
0.000352053456895158
0.000352053430121788
0.000352053404748742
0.000352053380556726
0.000352053357417968
0.000352053335358309
0.000352053314367514
0.000352053294514469
0.00035205327579913
0.000352053258288421
0.000352053241976607
0.00035205322692535
0.000352053213129086
0.000352053200651925
0.000352053189506477
0.000352053179835607
0.00035205317171271
0.000352053165283046
0.000352053160103757
0.000352053156328659
0.000352053151460036
0.000352053131750397
0.0003520530106283
0.000352052289609452
0.000352048241095015
0.000352026649667492
0.000351918051664395
0.000351409375158711
0.000349229329116962
0.000340883365967044
0.000313222875591617
0.000236865831225464
6.39946407138193e-05
3.05001240035142e-06
2.94309343077867e-06
6.33404920511239e-05
0.000237389039838512
0.00031567450758453
0.000344312135789023
0.000353006621972001
0.000355282355132191
0.000355812205743829
0.000355924614882218
0.000355946727787557
0.000355950798645267
0.000355951485997843
0.000355951574092029
0.000355951563839195
0.000355951539467822
0.000355951513728288
0.000355951488806654
0.000355951464934978
0.000355951441941895
0.000355951419765081
0.000355951398357074
0.000355951377784105
0.000355951358058617
0.000355951339263762
0.000355951321408367
0.000355951304564317
0.000355951288727491
0.000355951273957299
0.000355951260242208
0.000355951247636141
0.000355951236132336
0.000355951225809295
0.000355951216686642
0.000355951208848421
0.000355951202128964
0.000355951196342205
0.000355951189048561
0.000355951165906432
0.000355951039842321
0.000355950310268586
0.000355946229369886
0.00035592446421526
0.000355814905617959
0.000355301258848185
0.000353098117052013
0.000344658950041244
0.000316683368572562
0.000239463351218693
6.45785498536784e-05
3.06730086198525e-06
2.94997998842087e-06
6.3583722332038e-05
0.00023856632488891
0.000317330801928424
0.000346188354212533
0.000354968518958974
0.000357273125046105
0.000357811573613238
0.000357926290262863
0.000357948972307873
0.000357953176324397
0.000357953897163675
0.000357953995819221
0.00035795399058548
0.000357953969935603
0.000357953947309826
0.00035795392492192
0.000357953903111943
0.000357953881847394
0.000357953861161432
0.000357953841057719
0.000357953821628422
0.000357953802900741
0.000357953784966663
0.000357953767840678
0.000357953751597572
0.000357953736234146
0.000357953721808067
0.000357953708304014
0.000357953695769138
0.000357953684185844
0.000357953673605789
0.000357953664021435
0.000357953655482591
0.000357953647889813
0.000357953640944802
0.000357953632216372
0.000357953607126517
0.000357953478302581
0.00035795274402975
0.000357948646924828
0.000357926796851691
0.000357816765025101
0.000357300640128497
0.000355085862651453
0.000346599374289061
0.000318462957084636
0.000240800455477377
6.48726933661722e-05
3.07583315974865e-06
2.95309342690235e-06
6.36964342510002e-05
0.000239133469222139
0.000318141009661853
0.000347114551325069
0.000355941626944396
0.000358262630820192
0.000358806139738191
0.000358922262334429
0.000358945302943295
0.000358949593488328
0.000358950336354246
0.000358950442187803
0.00035895044039132
0.000358950422170011
0.000358950401591213
0.000358950380921134
0.000358950360556992
0.000358950340540067
0.000358950320956712
0.000358950301840561
0.000358950283299041
0.000358950265368076
0.000358950248144515
0.000358950231646145
0.000358950215948892
0.000358950201050208
0.000358950187006105
0.000358950173799009
0.000358950161471549
0.000358950150000027
0.000358950139423525
0.000358950129720753
0.000358950120923106
0.000358950112942553
0.000358950105440417
0.000358950095982796
0.000358950069895735
0.000358949939646571
0.000358949202964318
0.000358945098098323
0.000358923208137927
0.000358812952143618
0.000358295638768583
0.000356075219848096
0.000347565589264312
0.000319349976868834
0.000241468140991721
6.50168731576484e-05
3.07994223450091e-06
2.95446719147052e-06
6.37472826856435e-05
0.000239398865250533
0.000318526060799264
0.000347558916694362
0.000356410877147438
0.000358740895665708
0.000359287284774013
0.000359404234970945
0.000359427493602678
0.000359431838416303
0.000359432595377467
0.00035943270593237
0.000359432706433212
0.000359432689793386
0.000359432670567732
0.000359432651076729
0.000359432631745495
0.000359432612650514
0.000359432593905131
0.000359432575559339
0.000359432557728511
0.000359432540453366
0.000359432523832927
0.000359432507886768
0.000359432492690925
0.000359432478243064
0.000359432464597778
0.000359432451736133
0.000359432439697621
0.000359432428455108
0.000359432418041216
0.000359432408427539
0.00035943239963587
0.000359432391578287
0.000359432383902523
0.000359432374175468
0.000359432347683666
0.000359432216800654
0.000359431478999015
0.000359427370608138
0.00035940546261937
0.000359295104111098
0.000358777239911223
0.000356554175825181
0.000348033590172844
0.000319780180954221
0.000241792775608927
6.5085854178758e-05
3.08187779402805e-06
2.95506051948985e-06
6.37696834032121e-05
0.000239519917957372
0.000318704455297649
0.00034776681906399
0.000356631610529065
0.000358966441417587
0.000359514420819741
0.000359631843132742
0.000359655230117507
0.000359659607897765
0.000359660373684328
0.000359660487332259
0.000359660489403089
0.000359660473838956
0.000359660455559581
0.000359660436930721
0.000359660418388886
0.000359660400025097
0.000359660381964677
0.000359660364265766
0.000359660347047141
0.000359660330351914
0.000359660314279443
0.000359660298850159
0.000359660284139517
0.00035966027014512
0.000359660256920257
0.000359660244445126
0.000359660232756903
0.000359660221826583
0.000359660211682922
0.000359660202294033
0.000359660193676711
0.000359660185743201
0.000359660178140876
0.000359660168447496
0.000359660141935413
0.000359660010896939
0.000359659272693992
0.00035965516285143
0.000359633247061998
0.000359522843153154
0.000359004731116493
0.000356780461934175
0.000348254833499512
0.000319983864768915
0.000241946930605751
6.51181457245536e-05
3.08277128707375e-06
2.95531336591379e-06
6.37793420859804e-05
0.000239573881295117
0.000318785251613419
0.000347861940572139
0.000356733182341704
0.000359070515407655
0.000359619349133934
0.000359737033208559
0.000359760493577206
0.000359764890847248
0.000359765662097793
0.000359765777821036
0.000359765781033047
0.000359765766264743
0.000359765748710896
0.000359765730768474
0.000359765712877726
0.000359765695135207
0.00035976567767098
0.000359765660547219
0.000359765643883412
0.00035976562772355
0.000359765612166485
0.000359765597232888
0.000359765582997205
0.000359765569457025
0.000359765556664202
0.000359765544598404
0.000359765533294954
0.000359765522723712
0.000359765512910849
0.000359765503822776
0.000359765495473876
0.000359765487778592
0.000359765480393403
0.000359765470921512
0.00035976544463806
0.000359765313726055
0.000359764575504936
0.000359760465194075
0.000359738546227327
0.000359628122797628
0.000359109901952921
0.000356885096620405
0.000348357200606414
0.000320078258935738
0.000242018598443933
6.51329639257206e-05
3.08317695442178e-06
2.95542284919729e-06
6.37834226350253e-05
0.000239597431666676
0.000318821096874894
0.000347904592946329
0.000356779005803628
0.000359117609752494
0.0003596668912861
0.000359784716815346
0.000359808218072772
0.000359812626650657
0.00035981340132627
0.000359813518536881
0.000359813522672681
0.000359813508577271
0.000359813491662587
0.000359813474337575
0.000359813457044581
0.000359813439883456
0.000359813422985879
0.000359813406417058
0.000359813390295199
0.00035981337466439
0.000359813359622424
0.000359813345189866
0.000359813331439959
0.000359813318370114
0.000359813306030778
0.000359813294401263
0.000359813283515064
0.000359813273341346
0.00035981326390417
0.000359813255169049
0.000359813247149143
0.000359813239763164
0.00035981323268402
0.000359813223558668
0.000359813197683797
0.000359813067076966
0.000359812329051883
0.000359808218747623
0.000359786298654986
0.000359675867094723
0.000359157599339838
0.000356932559569665
0.000348403662210749
0.000320121167658982
0.000242051277357324
6.51396391934418e-05
3.08336117986641e-06
2.9554694708468e-06
6.37851056003555e-05
0.000239607497656515
0.000318836693249867
0.000347923365551105
0.000356799308162035
0.00035913854474932
0.000359688056024302
0.000359805956299335
0.000359829479873058
0.000359833894991116
0.000359834671925586
0.000359834790311131
0.000359834795273485
0.000359834781802157
0.000359834765512263
0.000359834748793358
0.000359834732090297
0.000359834715505856
0.000359834699171666
0.000359834683159002
0.00035983466758255
0.000359834652485819
0.000359834637965372
0.000359834624041606
0.000359834610786542
0.000359834598197257
0.000359834586322886
0.000359834575142178
0.000359834564687009
0.000359834554925674
0.000359834545880342
0.000359834537515702
0.000359834529843937
0.000359834522788446
0.000359834516042521
0.000359834507311061
0.000359834481932075
0.00035983435170598
0.000359833613975872
0.00035982950390024
0.000359807583575468
0.000359697148771492
0.000359178860941334
0.000356953719336193
0.000348424384281935
0.000320140327694827
0.000242065906929932
6.51425960040475e-05
3.08344611137265e-06
2.95549122575042e-06
6.37857878095012e-05
0.000239611702885506
0.00031884334249349
0.00034793147660343
0.000356808146969112
0.000359147693622864
0.00035969732073641
0.000359815259800997
0.000359838795403924
0.000359843214402246
0.00035984399298975
0.000359844112422304
0.000359844118178706
0.000359844105313148
0.000359844089681248
0.000359844073603037
0.000359844057523319
0.000359844041545729
0.000359844025797827
0.000359844010369462
0.000359843995366119
0.00035984398082969
0.000359843966855358
0.000359843953463418
0.000359843940724594
0.000359843928635677
0.0003598439172443
0.0003598439065287
0.000359843896518817
0.000359843887181946
0.000359843878538046
0.000359843870550836
0.000359843863230953
0.000359843856504708
0.000359843850081662
0.000359843841719332
0.000359843816795089
0.000359843686926564
0.000359842949528735
0.000359838839800061
0.000359816919652513
0.000359706483685859
0.000359188187175143
0.000356963000685966
0.000348433473484007
0.000320148733388848
0.000242072332252327
6.51438873413025e-05
3.08348896869033e-06
2.95550687582975e-06
6.37860785682179e-05
0.000239613405000448
0.000318846106011284
0.000347934910370029
0.000356811925521039
0.000359151623019605
0.000359701307907859
0.000359819266847347
0.000359842808906933
0.000359847230339434
0.000359848010301085
0.000359848130745663
0.000359848137243531
0.000359848125000549
0.000359848110061481
0.000359848094659654
0.000359848079236144
0.000359848063889135
0.000359848048726458
0.000359848033899867
0.000359848019487598
0.000359848005526951
0.000359847992111597
0.000359847979261806
0.000359847967047174
0.000359847955464076
0.000359847944558612
0.000359847934308447
0.000359847924741351
0.000359847915823306
0.000359847907571762
0.000359847899949029
0.000359847892963159
0.000359847886539445
0.000359847880389723
0.000359847872284958
0.000359847847594017
0.000359847717961164
0.000359846980878034
0.000359842871537697
0.000359820951733118
0.000359710515454235
0.000359192214986168
0.000356967007441611
0.000348437392776308
0.000320152349038796
0.000242075088141873
6.51444472748944e-05
3.08350112202995e-06
2.95550689316071e-06
6.37862271584374e-05
0.000239614046015931
0.000318847202574274
0.000347936321258664
0.000356813502729111
0.000359153274220114
0.000359702987897961
0.000359820956952003
0.000359844502490058
0.00035984892556908
0.000359849706768555
0.00035984982825756
0.000359849835490838
0.000359849823888193
0.00035984980967313
0.000359849794983471
0.00035984978025132
0.000359849765554244
0.000359849750918892
0.000359849736703873
0.000359849722902183
0.000359849709536503
0.000359849696698063
0.000359849684407205
0.000359849672732442
0.000359849661669758
0.000359849651263478
0.000359849641490779
0.000359849632376996
0.000359849623886545
0.000359849616034097
0.000359849608780233
0.000359849602129452
0.000359849596001818
0.000359849590094111
0.000359849582140417
0.000359849557471749
0.000359849427982173
0.000359848691196732
0.000359844582235666
0.000359822662800949
0.000359712226505427
0.00035919392398364
0.000356968704974189
0.000348439046651973
0.000320153860080651
0.000242076220737339
6.51447054505072e-05
3.08350575455177e-06
2.95550204858778e-06
6.37862228517247e-05
0.00023961419799529
0.000318847587361043
0.000347936870032322
0.000356814136854397
0.000359153945975692
0.00035970367425606
0.000359821648604494
0.000359845196151722
0.000359849620449704
0.000359850402771078
0.000359850525314574
0.000359850533243823
0.000359850522265418
0.000359850508785388
0.000359850494830529
0.000359850480816997
0.000359850466770186
0.000359850452400036
0.000359850438758816
0.000359850425567755
0.000359850412801964
0.000359850400547571
0.000359850388824759
0.000359850377701185
0.000359850367172005
0.000359850357279848
0.000359850348001393
0.000359850339359655
0.000359850331317121
0.000359850323885727
0.00035985031702412
0.000359850310733052
0.000359850304925235
0.000359850299273421
0.000359850291454272
0.000359850266781908
0.000359850137412109
0.000359849400861898
0.000359845292169812
0.000359823373005293
0.00035971293668061
0.000359194632737441
0.000356969405744936
0.000348439722257966
0.000320154459514046
0.000242076640297503
6.51447630693815e-05
3.08350879339354e-06
2.95550661474815e-06
6.37860748269208e-05
0.00023961413658947
0.00031884767430948
0.000347937052603891
0.000356814368728561
0.00035915419928386
0.00035970393582628
0.000359821913326813
0.000359845462260945
0.000359849887562185
0.000359850670931216
0.000359850794471711
0.000359850803045322
0.000359850792679938
0.000359850779982838
0.000359850766835936
0.000359850753631051
0.000359850740300942
0.000359850725351072
0.000359850712159927
0.000359850699577133
0.00035985068742446
0.000359850675773892
0.000359850664644644
0.000359850654103619
0.000359850644144647
0.000359850634808428
0.000359850626071432
0.00035985061795479
0.000359850610418682
0.000359850603472345
0.00035985059707282
0.000359850591217525
0.000359850585812827
0.000359850580509834
0.000359850572937834
0.000359850548404382
0.000359850419221472
0.000359849682859584
0.000359845574376935
0.00035982365553652
0.000359713219246205
0.000359194913932709
0.000356969680602285
0.000348439975453139
0.000320154661585882
0.000242076747096148
6.51447135414464e-05
3.08351213689918e-06
2.95548946755191e-06
6.37859466247807e-05
0.00023961401426977
0.000318847643135041
0.000347937084034223
0.000356814433222511
0.000359154277663147
0.000359704019400208
0.000359821998636571
0.000359845548292459
0.000359849974172659
0.000359850758282672
0.000359850882534938
0.000359850891507059
0.000359850881573545
0.000359850869652338
0.000359850857390863
0.000359850845145225
0.000359850832847267
0.000359850818692645
0.000359850806283983
0.000359850794341927
0.000359850782813804
0.000359850771775388
0.000359850761246722
0.000359850751294286
0.000359850741909721
0.00035985073313153
0.000359850724936876
0.000359850717345319
0.000359850710313279
0.000359850703847345
0.000359850697902674
0.000359850692473581
0.00035985068746141
0.000359850682502093
0.000359850675194475
0.000359850650840547
0.000359850521819066
0.000359849785553461
0.000359845677158089
0.000359823758464201
0.000359713321948144
0.000359195014835669
0.000356969775816904
0.0003484400500893
0.000320154695820108
0.000242076721102442
6.51446502790087e-05
3.08350361544824e-06
2.95546676756612e-06
6.37858522851032e-05
0.000239613878219387
0.000318847566552834
0.000347937054555267
0.000356814427854641
0.000359154281971687
0.000359704027064294
0.00035982200719934
0.000359845557177814
0.000359849983414863
0.000359850768106341
0.000359850892905134
0.000359850902157003
0.000359850892526729
0.000359850881077009
0.000359850869317267
0.000359850857608294
0.000359850845983247
0.000359850833842955
0.00035985082212779
0.000359850810822182
0.000359850799923566
0.000359850789510864
0.000359850779605665
0.000359850770274099
0.000359850761503617
0.000359850753330658
0.000359850745729922
0.000359850738718961
0.000359850732255886
0.000359850726345576
0.000359850720942398
0.000359850716038387
0.000359850711532402
0.000359850707052877
0.00035985070018385
0.000359850676223841
0.000359850547581032
0.00035984981165086
0.000359845703509621
0.000359823784840887
0.000359713347952623
0.000359195039059955
0.000356969794505389
0.000348440054286378
0.000320154665603948
0.000242076640143711
6.51445637119541e-05
3.0834878150733e-06
2.95546092263276e-06
6.37857806644946e-05
0.000239613745633746
0.000318847475460392
0.000347937001268077
0.000356814393982829
0.000359154255697072
0.000359704003325451
0.000359821984237229
0.00035984553462214
0.00035984996137043
0.000359850746777574
0.000359850872238096
0.000359850881892719
0.000359850872639338
0.000359850861491828
0.000359850849996543
0.000359850838515219
0.000359850827124759
0.000359850815741974
0.000359850804667567
0.000359850793981441
0.000359850783704153
0.000359850773915594
0.000359850764634301
0.00035985075592358
0.000359850747773732
0.000359850740220395
0.000359850733237465
0.000359850726841447
0.000359850720990676
0.000359850715688463
0.000359850710889252
0.000359850706583783
0.000359850702669742
0.000359850698774341
0.000359850692477574
0.000359850669075437
0.000359850540983572
0.000359849805583494
0.000359845697909614
0.000359823779485575
0.00035971334255711
0.000359195032489734
0.000356969783335625
0.000348440029576889
0.000320154610664432
0.000242076543688783
6.51444948394503e-05
3.08348041337435e-06
2.95545824090305e-06
6.37857197928931e-05
0.000239613615804511
0.00031884737664106
0.000347936934526328
0.000356814343959718
0.000359154212149124
0.000359703961888571
0.000359821943478293
0.000359845494284654
0.000359849921589688
0.000359850707735789
0.000359850833891191
0.000359850843996108
0.00035985083517448
0.000359850824548781
0.000359850813583456
0.000359850802626892
0.000359850791763718
0.000359850781048908
0.000359850770607956
0.000359850760540407
0.00035985075087627
0.000359850741695695
0.000359850733015719
0.00035985072489729
0.000359850717332373
0.000359850710356544
0.000359850703943856
0.000359850698109626
0.000359850692810621
0.000359850688047072
0.000359850683773027
0.000359850679977627
0.000359850676556464
0.000359850673139315
0.000359850667308453
0.000359850644352849
0.000359850516672894
0.000359849781642499
0.000359845674330696
0.000359823756228274
0.000359713319427736
0.000359195008540638
0.000356969755448091
0.000348439989627937
0.000320154544469351
0.000242076445495441
6.51444396516761e-05
3.08347320379767e-06
2.95545615634696e-06
6.37856625501809e-05
0.000239613483131436
0.000318847268325415
0.000347936854551728
0.000356814279058941
0.000359154153087034
0.000359703904711725
0.000359821886923196
0.000359845438157858
0.000359849866028948
0.000359850652898507
0.000359850779759886
0.000359850790331823
0.000359850781929827
0.000359850771862352
0.000359850761476401
0.000359850751099566
0.000359850740815661
0.000359850730719334
0.000359850720884751
0.000359850711413177
0.000359850702338294
0.000359850693740067
0.000359850685634798
0.000359850678082039
0.000359850671075378
0.000359850664651093
0.000359850658784365
0.000359850653489199
0.000359850648718554
0.000359850644466796
0.000359850640687994
0.000359850637370677
0.000359850634407025
0.00035985063143488
0.000359850626045412
0.000359850603512053
0.000359850476189803
0.000359849741442896
0.000359845634432637
0.000359823716685987
0.000359713280162049
0.000359194968840109
0.000356969712662356
0.00034843993666645
0.000320154469367549
0.000242076346281973
6.51443908149777e-05
3.08347009246897e-06
2.95545409668861e-06
6.37856025837781e-05
0.000239613330516248
0.000318847132778056
0.000347936744296433
0.000356814182731915
0.000359154062202737
0.000359703815585877
0.000359821798390062
0.000359845350051316
0.000359849778472401
0.000359850566025297
0.000359850693607723
0.000359850704658741
0.000359850696611399
0.000359850687083981
0.000359850677278515
0.000359850667486823
0.000359850657787319
0.000359850648285018
0.000359850639038354
0.000359850630147079
0.000359850621646349
0.000359850613615613
0.000359850606071295
0.00035985059907256
0.000359850592615344
0.000359850586737943
0.000359850581417973
0.000359850576667516
0.000359850572431235
0.00035985056869236
0.000359850565405926
0.000359850562562949
0.000359850560050326
0.000359850557522969
0.000359850552591258
0.00035985053049601
0.000359850403503918
0.00035984966897223
0.000359845562227567
0.000359823644906241
0.000359713208922766
0.000359194897858083
0.000356969640178919
0.000348439857308563
0.0003201543739745
0.000242076236677694
6.51443435547755e-05
3.08346831426138e-06
2.9554517978349e-06
6.37855323393997e-05
0.000239613125782347