/*--------------------------------*- C++ -*----------------------------------*\
  =========                 |
  \\      /  F ield         | OpenFOAM: The Open Source CFD Toolbox
   \\    /   O peration     | Website:  https://openfoam.org
    \\  /    A nd           | Version:  10
     \\/     M anipulation  |
\*---------------------------------------------------------------------------*/
FoamFile
{
    format      ascii;
    class       volScalarField;
    location    "1.4";
    object      nut;
}
// * * * * * * * * * * * * * * * * * * * * * * * * * * * * * * * * * * * * * //

dimensions      [0 2 -1 0 0 0 0];

internalField   nonuniform List<scalar> 
2500
(
1.86525430404811e-12
3.840482315625e-12
7.7041677169217e-12
9.44582195766152e-12
1.00027975107429e-11
1.01475213379237e-11
1.01798923845687e-11
1.01863527653344e-11
1.01875304442819e-11
1.01877301666683e-11
1.0187758105985e-11
1.01877563267658e-11
1.01877526799818e-11
1.01877487428023e-11
1.01877445498563e-11
1.01877408183803e-11
1.01877381203979e-11
1.01877359771203e-11
1.01877341268251e-11
1.01877324580128e-11
1.01877309492388e-11
1.01877295894918e-11
1.01877283683883e-11
1.0187727268307e-11
1.01877263078296e-11
1.01877254935277e-11
1.01877248063985e-11
1.01877242668195e-11
1.01877238802372e-11
1.01877236513883e-11
1.0187723842625e-11
1.01877246615353e-11
1.01877251934206e-11
1.0187725473894e-11
1.01877264406808e-11
1.01877278202405e-11
1.01877296647779e-11
1.01877316019238e-11
1.01877322218052e-11
1.01877232481446e-11
1.01876484251983e-11
1.01872459310167e-11
1.01852411992635e-11
1.01758476147e-11
1.01351187932723e-11
9.97455941732113e-12
9.41409860817138e-12
7.75209817504796e-12
3.93196024507118e-12
1.89374934064942e-12
2.57948520905755e-11
4.85704418197928e-10
1.47528718019103e-09
1.95202218860773e-09
2.11374961091534e-09
2.15776663267205e-09
2.16797495132862e-09
2.17007141009249e-09
2.17046272436663e-09
2.1705301263675e-09
2.17053991924066e-09
2.17053999916938e-09
2.17053912955839e-09
2.170538156399e-09
2.17053716708742e-09
2.17053629267903e-09
2.17053561802596e-09
2.17053507483593e-09
2.17053460856623e-09
2.1705341961336e-09
2.17053382973818e-09
2.17053350505243e-09
2.17053321819398e-09
2.17053296225995e-09
2.17053274236681e-09
2.1705325632582e-09
2.17053241735881e-09
2.17053231019051e-09
2.17053224521896e-09
2.1705322209872e-09
2.17053234157034e-09
2.17053262439292e-09
2.17053274203883e-09
2.1705328320978e-09
2.17053314430192e-09
2.17053352857793e-09
2.17053389891607e-09
2.17053437285583e-09
2.17053454512879e-09
2.17053114282052e-09
2.17050629060906e-09
2.17037539164303e-09
2.16973179988857e-09
2.16677287087048e-09
2.15423767279854e-09
2.10624463377687e-09
1.94492815749878e-09
1.49004195126427e-09
5.08769979122704e-10
2.77789957302937e-11
4.94684661948745e-11
7.16874739744932e-09
1.80129898480354e-06
2.41139256813107e-06
2.62551916880154e-06
2.6862661844829e-06
2.70091294836916e-06
2.70402651651165e-06
2.70462573008283e-06
2.70473186020761e-06
2.70474829571991e-06
2.7047493814676e-06
2.7047485955277e-06
2.70474760031114e-06
2.70474659160594e-06
2.70474569723101e-06
2.7047449821988e-06
2.70474439974586e-06
2.70474389977408e-06
2.70474345692922e-06
2.70474306122859e-06
2.70474270826668e-06
2.70474239456797e-06
2.70474211818586e-06
2.70474187815769e-06
2.70474167769627e-06
2.7047415161108e-06
2.70474139240248e-06
2.70474130985281e-06
2.70474127291364e-06
2.70474132366961e-06
2.70474159115649e-06
2.70474182937956e-06
2.70474183881052e-06
2.70474212184453e-06
2.70474242993678e-06
2.70474285782047e-06
2.70474321178671e-06
2.70474314673378e-06
2.70473749795843e-06
2.70470088775272e-06
2.70451171764509e-06
2.703591762235e-06
2.69942222815089e-06
2.6820660844268e-06
2.61705570106214e-06
2.40415648883797e-06
1.81847362433943e-06
7.48148089808121e-09
5.35282391555192e-11
6.75678623644575e-11
1.13433088654821e-08
2.87017533753928e-06
3.82190796944609e-06
4.15856064410341e-06
4.2557028049529e-06
4.27960896591542e-06
4.28480215010048e-06
4.28582384394208e-06
4.2860089064087e-06
4.28603873135986e-06
4.2860416542384e-06
4.28604082288405e-06
4.28603954402455e-06
4.28603822922406e-06
4.28603705719237e-06
4.28603610103707e-06
4.28603530966098e-06
4.28603462260529e-06
4.28603400971516e-06
4.28603345716774e-06
4.28603295879463e-06
4.28603251193893e-06
4.28603211396542e-06
4.2860317640253e-06
4.28603146445894e-06
4.28603121428886e-06
4.28603101397e-06
4.28603086536953e-06
4.28603077399035e-06
4.28603076963761e-06
4.28603106715073e-06
4.28603129472566e-06
4.28603136316879e-06
4.28603156572897e-06
4.28603195577641e-06
4.28603236661415e-06
4.28603273080577e-06
4.28603243141135e-06
4.28602348042056e-06
4.2859685600993e-06
4.28568249469176e-06
4.28427621726969e-06
4.27783890608049e-06
4.2508042151818e-06
4.14882740020576e-06
3.81324667887669e-06
2.88655911076589e-06
1.16541821125093e-08
7.16178675391238e-11
7.92722535170018e-11
1.42294648617763e-08
3.62120888499815e-06
4.80989141873588e-06
5.23385288636218e-06
5.35795506403797e-06
5.38902822889998e-06
5.39590642892076e-06
5.39728651431507e-06
5.39754169796178e-06
5.39758440073559e-06
5.39758965478239e-06
5.39758908157154e-06
5.39758783628008e-06
5.39758651964575e-06
5.39758533223763e-06
5.39758434110689e-06
5.39758350440293e-06
5.39758276837141e-06
5.39758210478306e-06
5.39758150002139e-06
5.39758094876899e-06
5.39758044834601e-06
5.39757999718899e-06
5.39757959453685e-06
5.3975792414406e-06
5.39757893742523e-06
5.39757868368489e-06
5.39757848127872e-06
5.39757833422353e-06
5.39757825816947e-06
5.39757838326806e-06
5.397578547682e-06
5.39757868011351e-06
5.3975787909792e-06
5.39757909020472e-06
5.39757943523101e-06
5.39757966013469e-06
5.39757888484682e-06
5.39756762783175e-06
5.3975014743466e-06
5.39715357245701e-06
5.39542820747231e-06
5.38746284499906e-06
5.35375622990042e-06
5.22587040199734e-06
4.80361068066222e-06
3.63638523207281e-06
1.45018664545328e-08
8.30234299581465e-11
8.61561779791011e-11
1.60330779999736e-08
4.10753671900622e-06
5.4523189706478e-06
5.93566750714749e-06
6.07883713864367e-06
6.11519705229077e-06
6.12337287621396e-06
6.12504105400265e-06
6.12535509653782e-06
6.12540929683088e-06
6.12541686468513e-06
6.12541681340589e-06
6.12541577572955e-06
6.12541462023852e-06
6.12541355850554e-06
6.1254126483983e-06
6.12541186189858e-06
6.12541115872491e-06
6.12541051652862e-06
6.12540992433629e-06
6.12540937836677e-06
6.12540887627449e-06
6.12540841764013e-06
6.12540800174488e-06
6.12540762944449e-06
6.12540730040879e-06
6.12540701603914e-06
6.12540677692831e-06
6.12540658580413e-06
6.12540644884992e-06
6.1254064118205e-06
6.1254064825237e-06
6.12540656162003e-06
6.12540668369353e-06
6.12540680148354e-06
6.12540700395511e-06
6.12540713180026e-06
6.12540576596366e-06
6.12539295347627e-06
6.12532010808767e-06
6.12493399116938e-06
6.12300730475197e-06
6.11405787548887e-06
6.07598238815655e-06
5.93095287815777e-06
5.45120804236799e-06
4.12540468109543e-06
1.62938326524442e-08
8.97828671144838e-11
8.99376996847187e-11
1.70765410973975e-08
4.40146813432363e-06
5.84399070184664e-06
6.36584772785392e-06
6.52187277367351e-06
6.56194515144554e-06
6.57107036414153e-06
6.57295806546912e-06
6.57331884382937e-06
6.57338261012348e-06
6.57339226036297e-06
6.57339277291742e-06
6.57339199765722e-06
6.57339105363014e-06
6.57339016306427e-06
6.57338937637451e-06
6.57338867836581e-06
6.57338804236354e-06
6.57338745309332e-06
6.57338690281282e-06
6.57338638940329e-06
6.57338591126975e-06
6.57338546878092e-06
6.57338506141918e-06
6.57338469017876e-06
6.57338435482787e-06
6.57338405674452e-06
6.57338379620026e-06
6.57338357520777e-06
6.57338339629166e-06
6.57338327550561e-06
6.57338322060823e-06
6.5733832397495e-06
6.57338322997385e-06
6.57338329537625e-06
6.57338337450005e-06
6.5733832984215e-06
6.57338134738434e-06
6.57336780473152e-06
6.57329102796276e-06
6.57288237057664e-06
6.57083499168013e-06
6.56128554105314e-06
6.52051043862537e-06
6.36480547443747e-06
5.84923530282286e-06
4.42513755378536e-06
1.73532135180105e-08
9.35984682442079e-11
9.1905898486531e-11
1.76440224419872e-08
4.56886529233861e-06
6.06964761477755e-06
6.61532335958547e-06
6.77961579254653e-06
6.82217248521928e-06
6.83195868487472e-06
6.83400530470963e-06
6.83440127261713e-06
6.8344725246987e-06
6.83448388034418e-06
6.83448490382217e-06
6.83448437358079e-06
6.83448362589998e-06
6.83448289630921e-06
6.83448223072889e-06
6.83448162360017e-06
6.83448105915531e-06
6.83448052837376e-06
6.8344800264451e-06
6.83447955273342e-06
6.83447910640928e-06
6.83447868841236e-06
6.83447829850649e-06
6.83447793787315e-06
6.83447760634545e-06
6.83447730521118e-06
6.83447703452317e-06
6.83447679585784e-06
6.83447659019797e-06
6.83447642376812e-06
6.83447630013508e-06
6.83447622421257e-06
6.83447616675573e-06
6.83447615314182e-06
6.83447613002016e-06
6.83447585460458e-06
6.83447362160061e-06
6.83445961790381e-06
6.83438058579207e-06
6.83395928424418e-06
6.83184332072175e-06
6.8219478876836e-06
6.7795981608122e-06
6.61762463006129e-06
6.08099287270508e-06
4.59929511257431e-06
1.79486103010661e-08
9.56659596284489e-11
9.28858674806416e-11
1.79373415016148e-08
4.6594252594176e-06
6.19336480979539e-06
6.75312488101359e-06
6.92249955598612e-06
6.96664412482965e-06
6.97686938604994e-06
6.97902562701498e-06
6.97944679446198e-06
6.97952359059394e-06
6.97953625864597e-06
6.97953769393442e-06
6.9795373578154e-06
6.97953676467939e-06
6.97953616274257e-06
6.97953559593882e-06
6.97953506506535e-06
6.97953456195072e-06
6.97953408224973e-06
6.97953362343162e-06
6.97953318600738e-06
6.9795327697755e-06
6.9795323760996e-06
6.97953200498132e-06
6.97953165774874e-06
6.97953133428504e-06
6.97953103581485e-06
6.97953076222665e-06
6.97953051479261e-06
6.97953029376482e-06
6.97953010197479e-06
6.97952994087663e-06
6.97952981335228e-06
6.97952971062145e-06
6.97952963573253e-06
6.97952953916959e-06
6.97952914838694e-06
6.97952674708505e-06
6.97951245270478e-06
6.97943219001469e-06
6.97900413530094e-06
6.97685115645121e-06
6.96676653492882e-06
6.92354665136109e-06
6.75808612777504e-06
6.20971091676315e-06
4.69591596127349e-06
1.82693868222564e-08
9.67473985300429e-11
9.33559613274607e-11
1.80826459457808e-08
4.70629041781801e-06
6.25831723088456e-06
6.82606458073532e-06
6.99843470284709e-06
7.04355161866255e-06
7.05405602475741e-06
7.05628456084113e-06
7.05672295402908e-06
7.05680365961164e-06
7.05681728645077e-06
7.05681903285599e-06
7.05681882950805e-06
7.05681834625548e-06
7.05681783587782e-06
7.05681734171414e-06
7.05681686836612e-06
7.05681641243561e-06
7.05681597268742e-06
7.05681554818157e-06
7.0568151402313e-06
7.05681474908371e-06
7.05681437638728e-06
7.05681402231769e-06
7.05681368830045e-06
7.05681337425335e-06
7.05681308135502e-06
7.05681280937703e-06
7.05681255938873e-06
7.05681233125649e-06
7.05681212653674e-06
7.05681194561836e-06
7.05681179016843e-06
7.05681165690264e-06
7.05681154213148e-06
7.05681139749099e-06
7.05681093865601e-06
7.05680843937461e-06
7.05679397538602e-06
7.05671307064101e-06
7.05628157159942e-06
7.05410954804917e-06
7.04392638666967e-06
7.0002486108315e-06
6.83294024852626e-06
6.27831812376019e-06
4.7474141014954e-06
1.84360906425547e-08
9.72958629598988e-11
9.35744167905673e-11
1.81520853219012e-08
4.72963062699955e-06
6.29115396793748e-06
6.86326138427606e-06
7.03733011033979e-06
7.0830194403905e-06
7.09369430335655e-06
7.09596858647185e-06
7.09641826300449e-06
7.0965016084956e-06
7.09651589921783e-06
7.09651785500621e-06
7.09651775116432e-06
7.09651734169239e-06
7.09651689304647e-06
7.09651644911527e-06
7.0965160166411e-06
7.0965155949797e-06
7.09651518478872e-06
7.0965147861413e-06
7.09651440086503e-06
7.09651402949944e-06
7.09651367386849e-06
7.0965133342598e-06
7.09651301215632e-06
7.09651270749479e-06
7.09651242141881e-06
7.09651215362498e-06
7.09651190504828e-06
7.09651167534017e-06
7.09651146552497e-06
7.09651127545337e-06
7.0965111061132e-06
7.09651095553317e-06
7.09651081779942e-06
7.09651064471359e-06
7.09651014726366e-06
7.09650759326726e-06
7.09649303611646e-06
7.09641181007424e-06
7.09597862748058e-06
7.09379722194833e-06
7.08356493066921e-06
7.03965647284102e-06
6.87140994676246e-06
6.31359919479624e-06
4.77392276316856e-06
1.85200649101917e-08
9.75665237758653e-11
9.3673176867349e-11
1.81842625946552e-08
4.74087435732563e-06
6.30721646777242e-06
6.88162339327108e-06
7.05662213607896e-06
7.10263655550548e-06
7.11341174095752e-06
7.11571389725875e-06
7.11617068239752e-06
7.11625574333622e-06
7.11627047074258e-06
7.11627256883789e-06
7.11627253314151e-06
7.11627217181754e-06
7.11627176375435e-06
7.11627135388036e-06
7.11627095007091e-06
7.11627055314466e-06
7.11627016481393e-06
7.11626978574586e-06
7.1162694180706e-06
7.11626906250065e-06
7.11626872095641e-06
7.11626839379081e-06
7.1162680825094e-06
7.11626778706191e-06
7.11626750855911e-06
7.11626724665286e-06
7.1162670021885e-06
7.11626677469651e-06
7.11626656495189e-06
7.11626637253276e-06
7.1162661980618e-06
7.11626603979396e-06
7.11626589101503e-06
7.11626570347263e-06
7.11626518625249e-06
7.11626260400018e-06
7.11624799908158e-06
7.11616661917423e-06
7.1157326458093e-06
7.11354679612025e-06
7.10329094308272e-06
7.05927064278693e-06
6.89056531864063e-06
6.3311845101378e-06
4.78715974420494e-06
1.85612257282622e-08
9.76968661576694e-11
9.37167516130267e-11
1.81987786187474e-08
4.74613579939271e-06
6.31485006698694e-06
6.89043289857131e-06
7.06592498518417e-06
7.11211812097382e-06
7.12295040662408e-06
7.12526897024863e-06
7.12573007773169e-06
7.12581621455704e-06
7.12583122140581e-06
7.12583341310406e-06
7.12583342295387e-06
7.12583309298426e-06
7.12583271174854e-06
7.12583232525102e-06
7.12583194192014e-06
7.12583156327256e-06
7.12583119155569e-06
7.12583082776101e-06
7.12583047417618e-06
7.12583013160876e-06
7.12582980202226e-06
7.12582948580501e-06
7.12582918446475e-06
7.1258288979555e-06
7.12582862735987e-06
7.12582837230269e-06
7.12582813356721e-06
7.12582791061571e-06
7.12582770409514e-06
7.12582751344257e-06
7.12582733909024e-06
7.1258271792953e-06
7.12582702707415e-06
7.12582683419004e-06
7.12582630894557e-06
7.12582371412676e-06
7.12580908701585e-06
7.12572763722786e-06
7.1252933064542e-06
7.12310542444579e-06
7.11283865138816e-06
7.0687659109827e-06
6.89984340357959e-06
6.33971327605168e-06
4.79359560350422e-06
1.85809182933279e-08
9.77582612498632e-11
9.37355701733078e-11
1.82051732459146e-08
4.74853559111617e-06
6.31838663749349e-06
6.89455445634454e-06
7.07030091671257e-06
7.11658945778549e-06
7.12745327112563e-06
7.12978119450638e-06
7.1302448466082e-06
7.13033163700396e-06
7.13034681881932e-06
7.13034907183884e-06
7.13034911281529e-06
7.13034880417276e-06
7.13034844169841e-06
7.13034807229419e-06
7.13034770461439e-06
7.13034734046388e-06
7.13034698232755e-06
7.13034663135837e-06
7.1303462899115e-06
7.13034595884194e-06
7.13034564011982e-06
7.13034533415048e-06
7.13034504243016e-06
7.13034476491158e-06
7.13034450265149e-06
7.13034425525762e-06
7.13034402346717e-06
7.13034380670537e-06
7.13034360554253e-06
7.1303434193467e-06
7.13034324845105e-06
7.13034309111598e-06
7.1303429403508e-06
7.13034274813421e-06
7.13034222248745e-06
7.13033962458629e-06
7.13032498951921e-06
7.1302435109524e-06
7.12980902553761e-06
7.12762024350027e-06
7.11734855725008e-06
7.07325192652152e-06
6.90422944859582e-06
6.34375121232113e-06
4.796651654426e-06
1.85901365772051e-08
9.77866010816851e-11
9.37435884447645e-11
1.8207930226317e-08
4.74960531891546e-06
6.3199882995005e-06
6.8964401054267e-06
7.07231444053631e-06
7.11865258678636e-06
7.12953333704794e-06
7.13186644986009e-06
7.13233155680485e-06
7.13241873358951e-06
7.13243402373066e-06
7.13243631789506e-06
7.13243638149702e-06
7.13243608863332e-06
7.13243574054395e-06
7.13243538474971e-06
7.13243502997904e-06
7.13243467814646e-06
7.13243433183084e-06
7.13243399226516e-06
7.13243366181864e-06
7.13243334136372e-06
7.1324330328605e-06
7.13243273671909e-06
7.1324324544157e-06
7.13243218590279e-06
7.13243193220866e-06
7.13243169293048e-06
7.13243146876878e-06
7.13243125912624e-06
7.13243106452194e-06
7.13243088429017e-06
7.13243071871627e-06
7.13243056610423e-06
7.13243041964384e-06
7.13243023181825e-06
7.13242971070398e-06
7.13242711530985e-06
7.13241247988235e-06
7.13233099203261e-06
7.13189644363581e-06
7.1297072746416e-06
7.11943343147876e-06
7.0753261724494e-06
6.90625874308257e-06
6.34562245418387e-06
4.79807237679625e-06
1.85943665047092e-08
9.77994667999023e-11
9.37470591686441e-11
1.82090947413963e-08
4.75007210247738e-06
6.32069879633694e-06
6.89728554169843e-06
7.07322274033499e-06
7.11958608107068e-06
7.13047570896668e-06
7.13281162609688e-06
7.13327754366189e-06
7.1333649446267e-06
7.13338030267177e-06
7.13338262632499e-06
7.1333827082427e-06
7.13338242872062e-06
7.13338209330413e-06
7.13338174975146e-06
7.13338140683258e-06
7.13338106652743e-06
7.13338073144689e-06
7.1333804028841e-06
7.13338008318283e-06
7.13337977321748e-06
7.13337947492713e-06
7.1333791887198e-06
7.13337891604783e-06
7.1333786568602e-06
7.13337841215724e-06
7.1333781815291e-06
7.13337796564006e-06
7.133377763879e-06
7.13337757672321e-06
7.13337740348911e-06
7.13337724443786e-06
7.133377097958e-06
7.13337695756509e-06
7.13337677660966e-06
7.13337626359544e-06
7.13337367425119e-06
7.13335904271001e-06
7.13327755499236e-06
7.13284298428361e-06
7.13065365414782e-06
7.12037888121209e-06
7.07626697540349e-06
6.90717969798617e-06
6.34647298515312e-06
4.79872013463667e-06
1.85962717596329e-08
9.780530828076e-11
9.37485358957571e-11
1.82095747862651e-08
4.75027155509881e-06
6.32100785440358e-06
6.89765755613248e-06
7.07362507848003e-06
7.12000096036145e-06
7.13089514268567e-06
7.13323254161642e-06
7.1336989015981e-06
7.13378643222296e-06
7.13380183505161e-06
7.13380418199962e-06
7.13380428030542e-06
7.1338040131573e-06
7.13380369012877e-06
7.13380335859361e-06
7.13380302737156e-06
7.13380269850051e-06
7.13380237459041e-06
7.13380205705467e-06
7.13380174816728e-06
7.13380144879115e-06
7.133801160841e-06
7.13380088472149e-06
7.13380062186073e-06
7.13380037220108e-06
7.13380013671689e-06
7.13379991498711e-06
7.13379970764392e-06
7.13379951405899e-06
7.13379933467203e-06
7.13379916878315e-06
7.13379901663413e-06
7.13379887670646e-06
7.13379874291976e-06
7.13379856977327e-06
7.13379806658993e-06
7.1337954847936e-06
7.13378085910027e-06
7.13369937591646e-06
7.13326480061467e-06
7.13107540622025e-06
7.12080023551986e-06
7.07668631181047e-06
6.90759036082325e-06
6.34685269302204e-06
4.79901006020781e-06
1.85971154571794e-08
9.78080001184618e-11
9.37492238402093e-11
1.82097691319966e-08
4.75035481682166e-06
6.32113953358789e-06
6.89781820290385e-06
7.07380014915591e-06
7.12018217712228e-06
7.1310786557261e-06
7.13341682361706e-06
7.13388342207154e-06
7.13397102962318e-06
7.13398646522486e-06
7.13398883293156e-06
7.13398894698102e-06
7.13398869184389e-06
7.13398838186165e-06
7.13398806302975e-06
7.13398774416691e-06
7.13398742732805e-06
7.13398711504244e-06
7.13398680909171e-06
7.13398651156742e-06
7.13398622330046e-06
7.13398594617815e-06
7.13398568060314e-06
7.13398542797784e-06
7.1339851882389e-06
7.13398496233092e-06
7.1339847498227e-06
7.13398455130802e-06
7.13398436613872e-06
7.1339841947107e-06
7.13398403630485e-06
7.13398389113223e-06
7.13398375773212e-06
7.13398363034665e-06
7.13398346451822e-06
7.1339829703501e-06
7.13398039564245e-06
7.13396577653652e-06
7.13388430023249e-06
7.13344972845333e-06
7.13126031105732e-06
7.12098496849512e-06
7.07687015595004e-06
6.90777039942995e-06
6.34701919366049e-06
4.79913733468388e-06
1.85974836900099e-08
9.78093573471616e-11
9.37497181373201e-11
1.82098517251961e-08
4.75038845375075e-06
6.32119417739262e-06
6.89788612144481e-06
7.07387489914745e-06
7.12025991659409e-06
7.13115754034864e-06
7.13349610221261e-06
7.13396282866292e-06
7.13405048447239e-06
7.13406594731816e-06
7.13406833508999e-06
7.13406846384071e-06
7.13406822104777e-06
7.1340679248025e-06
7.13406761938145e-06
7.1340673135294e-06
7.13406700919325e-06
7.13406670851109e-06
7.13406641449183e-06
7.13406612868684e-06
7.13406585183597e-06
7.13406558579653e-06
7.13406533097071e-06
7.13406508873853e-06
7.13406485902842e-06
7.13406464275455e-06
7.13406443947439e-06
7.13406424973868e-06
7.13406407287327e-06
7.13406390922424e-06
7.13406375804463e-06
7.13406361949419e-06
7.13406349209202e-06
7.13406337012535e-06
7.13406320940317e-06
7.13406271986018e-06
7.13406014982456e-06
7.13404553695752e-06
7.13396406835363e-06
7.13352950338305e-06
7.13134007984586e-06
7.12106465906054e-06
7.07694943008833e-06
6.90784794342618e-06
6.34709073061057e-06
4.79919186183811e-06
1.85976431193775e-08
9.78097406346734e-11
9.37497165581012e-11
1.82098937316744e-08
4.75040105414723e-06
6.32121577344812e-06
6.89791393598085e-06
7.07390600700818e-06
7.12029249031963e-06
7.13119068458852e-06
7.13352944692443e-06
7.13399624232732e-06
7.13408393077915e-06
7.13409941816634e-06
7.13410182664574e-06
7.13410196997769e-06
7.13410173988107e-06
7.13410145799083e-06
7.13410116669009e-06
7.13410087454576e-06
7.13410058309596e-06
7.13410029286939e-06
7.13410001097591e-06
7.13409973727693e-06
7.13409947222249e-06
7.13409921762155e-06
7.13409897387767e-06
7.13409874234944e-06
7.13409852295751e-06
7.13409831658086e-06
7.13409812276728e-06
7.13409794201926e-06
7.13409777363156e-06
7.1340976178952e-06
7.13409747402889e-06
7.13409734212197e-06
7.13409722058986e-06
7.13409710342127e-06
7.13409694569411e-06
7.13409645659255e-06
7.1340938893972e-06
7.13407928243185e-06
7.13399782134839e-06
7.13356326371956e-06
7.13137383990141e-06
7.12109837863295e-06
7.0769829233672e-06
6.90788057503537e-06
6.34712054323876e-06
4.79921420682755e-06
1.8597716401912e-08
9.78098853591416e-11
9.37495607575673e-11
1.82098920886487e-08
4.75040395929391e-06
6.32122325838182e-06
6.89792465889585e-06
7.07391841804301e-06
7.12030564633163e-06
7.13120412985301e-06
7.13354299710007e-06
7.1340098323264e-06
7.13409754494411e-06
7.13411305457454e-06
7.13411548396102e-06
7.13411564109232e-06
7.13411542337295e-06
7.13411515605638e-06
7.13411487932464e-06
7.13411460142848e-06
7.13411432287166e-06
7.13411403790407e-06
7.13411376738747e-06
7.13411350579555e-06
7.13411325263514e-06
7.13411300961413e-06
7.13411277713288e-06
7.13411255653303e-06
7.1341123477188e-06
7.13411215153556e-06
7.13411196752122e-06
7.13411179613225e-06
7.13411163662518e-06
7.13411148923683e-06
7.1341113531475e-06
7.13411122837229e-06
7.13411111318082e-06
7.13411100108549e-06
7.13411084602566e-06
7.13411035685071e-06
7.13410779202978e-06
7.13409318972784e-06
7.1340117339783e-06
7.13357718171541e-06
7.13138775736804e-06
7.12111226815277e-06
7.07699665562185e-06
6.90789381223161e-06
6.34713228302746e-06
4.79922241573439e-06
1.85977324288716e-08
9.7809979531508e-11
9.3749703468779e-11
1.82098494165275e-08
4.75040263403195e-06
6.32122483860418e-06
6.89792812177277e-06
7.07392285435963e-06
7.12031050653038e-06
7.131209153603e-06
7.13354808328977e-06
7.13401494600294e-06
7.13410267851019e-06
7.13411820891196e-06
7.13412065806577e-06
7.13412082797328e-06
7.13412062240874e-06
7.13412037061544e-06
7.13412010990307e-06
7.13411984803992e-06
7.13411958369324e-06
7.13411928723385e-06
7.13411902564135e-06
7.13411877610962e-06
7.13411853510555e-06
7.13411830405657e-06
7.13411808334387e-06
7.13411787429414e-06
7.13411767678529e-06
7.13411749162446e-06
7.13411731834542e-06
7.13411715736727e-06
7.13411700790079e-06
7.1341168701293e-06
7.13411674320125e-06
7.13411662706565e-06
7.13411651986633e-06
7.13411641468655e-06
7.13411626452652e-06
7.13411577810542e-06
7.1341132169894e-06
7.13409861842094e-06
7.13401716682487e-06
7.13358262099665e-06
7.13139319737958e-06
7.12111768122973e-06
7.07700194404889e-06
6.90789867503972e-06
6.34713614503532e-06
4.79922442407506e-06
1.85977178672205e-08
9.78100833678982e-11
9.37491574247246e-11
1.82098124034425e-08
4.75040010113855e-06
6.32122407701392e-06
6.89792858824064e-06
7.07392397232586e-06
7.1203118987247e-06
7.13121064853644e-06
7.13354961258506e-06
7.13401648959834e-06
7.13410423358333e-06
7.13411977867658e-06
7.13412224194299e-06
7.13412241975266e-06
7.13412222275162e-06
7.13412198634208e-06
7.13412174318497e-06
7.13412150034051e-06
7.13412125645779e-06
7.13412097576569e-06
7.13412072968734e-06
7.13412049285959e-06
7.1341202642385e-06
7.13412004532663e-06
7.13411983652163e-06
7.13411963914176e-06
7.13411945302156e-06
7.13411927892459e-06
7.13411911639834e-06
7.1341189658308e-06
7.13411882635817e-06
7.13411869811128e-06
7.13411858020126e-06
7.13411847251552e-06
7.13411837309836e-06
7.13411827473212e-06
7.13411812981353e-06
7.13411764695141e-06
7.13411508903556e-06
7.13410049237589e-06
7.13401904251146e-06
7.13358449959742e-06
7.13139507155398e-06
7.12111951997146e-06
7.07700367101876e-06
6.90789999787574e-06
6.34713667962536e-06
4.79922379977802e-06
1.85976993846005e-08
9.78098108437256e-11
9.37484352442703e-11
1.82097850575201e-08
4.75039729603116e-06
6.32122241520435e-06
6.89792784716808e-06
7.07392370526563e-06
7.12031182244962e-06
7.13121063854003e-06
7.13354962035383e-06
7.1340165037536e-06
7.13410425481295e-06
7.13411981143523e-06
7.13412228553825e-06
7.13412246889561e-06
7.13412227790795e-06
7.13412205084727e-06
7.13412181763859e-06
7.13412158543504e-06
7.13412135489433e-06
7.13412111413807e-06
7.1341208818097e-06
7.13412065760088e-06
7.13412044146104e-06
7.13412023495517e-06
7.13412003851159e-06
7.13411985344157e-06
7.13411967949659e-06
7.13411951739929e-06
7.13411936664836e-06
7.13411922759195e-06
7.13411909939978e-06
7.13411898216877e-06
7.13411887499438e-06
7.13411877771883e-06
7.13411868833713e-06
7.134118599483e-06
7.13411846325957e-06
7.13411798820684e-06
7.13411543779809e-06
7.13410084778842e-06
7.13401940296358e-06
7.13358486055749e-06
7.13139542518397e-06
7.12111983854126e-06
7.07700388084092e-06
6.90789992424123e-06
6.34713593647221e-06
4.79922208578726e-06
1.85976742489056e-08
9.78093074295548e-11
9.37482477119675e-11
1.82097641975091e-08
4.75039455961297e-06
6.32122046572604e-06
6.89792663409182e-06
7.07392287310825e-06
7.12031113985652e-06
7.13121000597335e-06
7.13354900313466e-06
7.13401589458327e-06
7.13410365577782e-06
7.13411922658967e-06
7.13412171381325e-06
7.13412190515691e-06
7.13412172164279e-06
7.13412150057503e-06
7.13412127261076e-06
7.13412104492183e-06
7.13412081903322e-06
7.13412059329603e-06
7.13412037367209e-06
7.13412016174582e-06
7.13411995792512e-06
7.13411976379412e-06
7.13411957972063e-06
7.13411940695996e-06
7.13411924532007e-06
7.13411909550776e-06
7.13411895700573e-06
7.13411883014137e-06
7.13411871408888e-06
7.13411860891402e-06
7.13411851371384e-06
7.13411842830485e-06
7.13411835065879e-06
7.13411827338516e-06
7.1341181485069e-06
7.134117684514e-06
7.13411514502764e-06
7.13410056552717e-06
7.13401912996919e-06
7.13358459242353e-06
7.13139515630202e-06
7.12111954660303e-06
7.07700349871658e-06
6.90789927752756e-06
6.34713470317304e-06
4.79922006458103e-06
1.85976541647073e-08
9.78090704243241e-11
9.37481605175908e-11
1.82097464061592e-08
4.75039187784129e-06
6.3212183630606e-06
6.89792515427612e-06
7.07392172074795e-06
7.12031011481592e-06
7.13120902253931e-06
7.13354803308963e-06
7.13401493288473e-06
7.13410270511657e-06
7.13411829057976e-06
7.13412079158111e-06
7.13412099185355e-06
7.13412081690062e-06
7.1341206061794e-06
7.13412038872319e-06
7.13412017143918e-06
7.13411995600547e-06
7.13411974351234e-06
7.13411953644806e-06
7.13411933678642e-06
7.13411914512272e-06
7.13411896304622e-06
7.13411879089499e-06
7.13411862987758e-06
7.13411847983501e-06
7.13411834147274e-06
7.13411821427664e-06
7.13411809855054e-06
7.13411799343751e-06
7.13411789894232e-06
7.13411781415408e-06
7.13411773885764e-06
7.13411767098322e-06
7.13411760319115e-06
7.13411748754955e-06
7.13411703240917e-06
7.13411450108881e-06
7.13409992891735e-06
7.13401850053901e-06
7.13358396937874e-06
7.13139453584246e-06
7.12111891012485e-06
7.07700278515888e-06
6.90789832868831e-06
6.34713324672998e-06
4.79921800891052e-06
1.85976379872694e-08
9.78088395133005e-11
9.37480922657749e-11
1.82097296507975e-08
4.75038913969016e-06
6.32121607212902e-06
6.89792341211661e-06
7.07392027343503e-06
7.12030878220443e-06
7.1312077270574e-06
7.13354674988264e-06
7.13401365816002e-06
7.13410144161381e-06
7.13411704142106e-06
7.13411955642016e-06
7.134119765953e-06
7.13411959932093e-06
7.13411939966816e-06
7.13411919369961e-06
7.13411898791027e-06
7.13411878396208e-06
7.13411858373182e-06
7.13411838869018e-06
7.13411820084507e-06
7.1341180208646e-06
7.13411785033436e-06
7.13411768957783e-06
7.13411753977594e-06
7.1341174008018e-06
7.13411727337484e-06
7.13411715700327e-06
7.13411705196489e-06
7.13411695732733e-06
7.13411687297901e-06
7.13411679800948e-06
7.13411673219147e-06
7.13411667338751e-06
7.13411661441785e-06
7.13411650752698e-06
7.13411606075758e-06
7.13411353652862e-06
7.13409896997734e-06
7.13401754757853e-06
7.13358302348081e-06
7.1313935954772e-06
7.12111796137132e-06
7.07700177624132e-06
6.90789712187296e-06
6.34713161370946e-06
4.79921593301598e-06
1.85976236229577e-08
9.78087386001233e-11
9.37480248037337e-11
1.82097121178701e-08
4.75038600618283e-06
6.32121324132344e-06
6.89792106963645e-06
7.07391820309064e-06
7.12030681871153e-06
7.13120579818034e-06
7.13354483270491e-06
7.13401174943071e-06
7.13409954378801e-06
7.13411515714391e-06
7.13411768643951e-06
7.13411790547185e-06
7.13411774587244e-06
7.13411755692794e-06
7.13411736246909e-06
7.13411716828174e-06
7.13411697592079e-06
7.1341167874685e-06
7.13411660408372e-06
7.13411642774437e-06
7.13411625914774e-06
7.1341160998692e-06
7.13411595023467e-06
7.13411581141735e-06
7.13411568333698e-06
7.13411556675292e-06
7.1341154612217e-06
7.13411536698297e-06
7.13411528293986e-06
7.13411520876007e-06
7.13411514355226e-06
7.13411508713845e-06
7.13411503727646e-06
7.13411498712491e-06
7.13411488930919e-06
7.1341144512253e-06
7.13411193354159e-06
7.13409737125704e-06
7.1340159541251e-06
7.13358143846878e-06
7.131392021229e-06
7.12111639245584e-06
7.07700017856085e-06
6.9078953917437e-06
6.34712957841098e-06
4.79921365112167e-06
1.85976097087101e-08
9.78086799740203e-11
9.37479497543458e-11
1.82096916507571e-08
4.75038183941145e-06
6.32120911018858e-06