/*--------------------------------*- C++ -*----------------------------------*\
  =========                 |
  \\      /  F ield         | OpenFOAM: The Open Source CFD Toolbox
   \\    /   O peration     | Website:  https://openfoam.org
    \\  /    A nd           | Version:  10
     \\/     M anipulation  |
\*---------------------------------------------------------------------------*/
FoamFile
{
    format      ascii;
    class       volScalarField;
    location    "1.4";
    object      omega;
}
// * * * * * * * * * * * * * * * * * * * * * * * * * * * * * * * * * * * * * //

dimensions      [0 0 -1 0 0 0 0];

internalField   nonuniform List<scalar> 
2500
(
128469.257594966
128508.620740908
128501.355166407
128500.131621074
128499.941254348
128499.909740132
128499.904019852
128499.902121453
128499.900764814
128499.900182709
128499.899240948
128499.898616617
128499.898236309
128499.897729112
128499.897265975
128499.896730573
128499.896477261
128499.896140696
128499.89575332
128499.895490398
128499.895219168
128499.894865938
128499.89454599
128499.894527659
128499.894484775
128499.894274404
128499.894252156
128499.894188113
128499.894054159
128499.894160279
128499.894271553
128499.894323749
128499.894442574
128499.894613473
128499.89482359
128499.895006469
128499.895216233
128499.895383706
128499.895754667
128499.896095525
128499.896498194
128499.896998784
128499.89776056
128499.899436685
128499.907171784
128499.943844827
128500.14718285
128501.38619918
128508.763929028
128469.27179829
31768.2408151076
14112.4850135151
14108.6584074129
14107.8369868744
14107.6756788083
14107.6449926241
14107.6394366548
14107.6384725817
14107.6382972117
14107.6382642762
14107.638240586
14107.6382266003
14107.6382216004
14107.6382135995
14107.6382060577
14107.6381971412
14107.6381909507
14107.6381850159
14107.6381804698
14107.6381734132
14107.6381531705
14107.6381219735
14107.6380901786
14107.6380967188
14107.638104879
14107.6380870522
14107.6380921045
14107.6380940059
14107.6380786011
14107.638096568
14107.6381042392
14107.6380813002
14107.6381128532
14107.6381582447
14107.6381717658
14107.6381767066
14107.6381799774
14107.6381824909
14107.6381893556
14107.6381946546
14107.638208014
14107.6382619445
14107.6385320792
14107.6399463176
14107.6471376608
14107.6820457117
14107.8488140347
14108.6639658559
14112.5496108586
31768.7958770774
31614.6850307247
3511.63168890269
50.5578678935907
50.5555055649462
50.555026400622
50.5549328092082
50.5549153927425
50.5549123268744
50.554911818165
50.5549117576595
50.5549117158053
50.5549116939709
50.55491171227
50.5549117189808
50.5549117304402
50.5549117419054
50.5549117467188
50.5549117486582
50.5549117438554
50.5549117372987
50.5549117138021
50.5549116763123
50.5549116423704
50.5549116316816
50.5549116502057
50.5549116439657
50.5549116247394
50.5549116400064
50.5549116522967
50.554911682293
50.5549116723414
50.5549116290184
50.5549116849676
50.5549117712575
50.5549117949063
50.5549117987575
50.5549117799464
50.5549117761088
50.5549117930074
50.5549117694093
50.554911776602
50.5549119269429
50.5549126808972
50.5549166908883
50.5549371400309
50.5550368914473
50.5555170881868
50.5578576492621
3511.64380537056
31615.5151256522
31553.8707546216
3505.47727278857
50.4753543115507
50.4743818823077
50.4741840743463
50.4741457046447
50.4741385140625
50.4741372175207
50.4741369955243
50.474136984991
50.4741369820015
50.4741369713434
50.4741369803881
50.4741369902427
50.474136999939
50.4741370092628
50.4741370111047
50.4741370098444
50.4741370158801
50.4741370157777
50.4741370073382
50.4741370004754
50.4741369874235
50.474136987058
50.4741369977351
50.4741369953196
50.4741369891549
50.4741369949159
50.4741370052188
50.4741370146019
50.474137012194
50.4741370000309
50.4741370175297
50.4741370453869
50.4741370541609
50.4741370557305
50.4741370463978
50.4741370401025
50.4741370382028
50.4741370282935
50.4741370225985
50.4741370697602
50.4741373430858
50.4741387818536
50.4741462937037
50.4741843201818
50.4743768296812
50.4753438557561
3505.48301612231
31554.4250517029
31533.5948863722
3503.54606048644
50.4500479817455
50.4497295159924
50.4496629611438
50.4496500056419
50.4496475616467
50.4496471132897
50.4496470368736
50.4496470352388
50.4496470350689
50.4496470325441
50.4496470369176
50.4496470419927
50.4496470467098
50.4496470508103
50.4496470517297
50.4496470510937
50.4496470549955
50.4496470554311
50.4496470536409
50.4496470534836
50.4496470502302
50.4496470516952
50.4496470552128
50.4496470552255
50.4496470539667
50.4496470558847
50.4496470599313
50.4496470632599
50.4496470631662
50.4496470606172
50.4496470655809
50.4496470728887
50.4496470755874
50.4496470751993
50.4496470729067
50.4496470705199
50.4496470682424
50.4496470677775
50.4496470632334
50.4496470722759
50.4496471556843
50.4496475962915
50.4496499192694
50.4496619737382
50.4497248068306
50.4500406940111
3503.54794884818
31533.8527999073
31527.6192836057
3503.00974390079
50.4430837495334
50.4429930909284
50.4429733902582
50.4429695140369
50.4429687792491
50.4429686433302
50.4429686205023
50.4429686206103
50.4429686211486
50.4429686210938
50.4429686231944
50.4429686254356
50.442968627411
50.4429686289492
50.4429686296761
50.4429686298858
50.442968631583
50.4429686321859
50.4429686321247
50.4429686326911
50.4429686326144
50.4429686338302
50.4429686352169
50.4429686356219
50.4429686358005
50.4429686365804
50.4429686381033
50.4429686396144
50.4429686402542
50.4429686403722
50.4429686416287
50.4429686432217
50.4429686441265
50.4429686441829
50.4429686438308
50.4429686431266
50.4429686424605
50.4429686427034
50.4429686419103
50.4429686431671
50.4429686654127
50.4429687885477
50.4429694392182
50.4429728635257
50.4429909480429
50.4430806022176
3503.0102159443
31527.7158677626
31526.0149770965
3502.8737955934
50.4413227015824
50.4412992762746
50.4412939597566
50.4412928974912
50.4412926955499
50.4412926583281
50.4412926524254
50.4412926529028
50.441292653499
50.4412926540022
50.4412926550991
50.4412926561914
50.4412926571855
50.4412926580359
50.441292658728
50.4412926592327
50.4412926601401
50.4412926608129
50.4412926612811
50.4412926619489
50.4412926624833
50.441292663262
50.4412926640357
50.4412926645883
50.44129266514
50.4412926656509
50.4412926663934
50.4412926672424
50.4412926678027
50.4412926682407
50.4412926688159
50.441292669404
50.4412926698781
50.4412926701517
50.4412926702842
50.4412926702576
50.4412926702077
50.4412926704295
50.4412926704229
50.4412926705417
50.4412926762172
50.4412927083197
50.4412928780112
50.4412937772146
50.4412985402669
50.4413216777433
3502.87388337245
31526.0461630771
31525.6149055741
3502.84172702513
50.4409074896014
50.4409018527927
50.4409005168604
50.44090024512
50.4409001935319
50.4409001843239
50.4409001831982
50.4409001837278
50.4409001843023
50.4409001848834
50.4409001856206
50.4409001863503
50.440900187059
50.440900187734
50.4409001883909
50.440900188987
50.4409001896776
50.4409001903471
50.440900190965
50.4409001916
50.4409001921963
50.4409001928505
50.4409001934873
50.4409001940464
50.4409001946074
50.4409001951436
50.4409001957366
50.4409001963281
50.4409001968303
50.4409001972901
50.4409001977475
50.4409001981722
50.4409001985557
50.4409001988796
50.4409001991399
50.4409001993225
50.440900199478
50.44090019968
50.4409001998004
50.4409001998703
50.4409002012879
50.4409002092017
50.4409002509507
50.4409004727884
50.4409016447369
50.4409072146988
3502.84173614443
31525.6239404384
31525.5212364814
3502.83462459295
50.4408156893326
50.4408144050407
50.4408140881909
50.4408140226473
50.4408140104308
50.440814008561
50.4408140086741
50.440814009203
50.4408140097583
50.4408140103325
50.440814010954
50.4408140115804
50.4408140122103
50.4408140128388
50.4408140134721
50.4408140140909
50.4408140147308
50.4408140153744
50.4408140160051
50.440814016632
50.4408140172452
50.4408140178595
50.4408140184569
50.4408140190278
50.440814019595
50.4408140201426
50.4408140206796
50.4408140211972
50.4408140216806
50.4408140221355
50.4408140225691
50.4408140229656
50.4408140233292
50.4408140236672
50.4408140239668
50.4408140242184
50.4408140244369
50.4408140246273
50.4408140247686
50.4408140248669
50.4408140252485
50.4408140271204
50.4408140368791
50.440814088777
50.4408143615945
50.440815631894
3502.83462364806
31525.5236491377
31525.5007707039
3502.83317170754
50.4407970531861
50.4407967730827
50.4407967016235
50.4407966867779
50.4407966842803
50.440796684212
50.440796684621
50.4407966851423
50.4407966856848
50.4407966862451
50.4407966868282
50.4407966874232
50.4407966880285
50.4407966886409
50.4407966892609
50.440796689881
50.4407966905067
50.4407966911351
50.4407966917595
50.4407966923784
50.4407966929889
50.4407966935912
50.4407966941803
50.4407966947535
50.4407966953147
50.4407966958578
50.4407966963815
50.4407966968835
50.4407966973606
50.4407966978121
50.4407966982393
50.4407966986357
50.4407966990006
50.4407966993392
50.4407966996422
50.4407966999077
50.4407967001391
50.4407967003337
50.4407967004889
50.4407967006034
50.4407967007488
50.4407967011947
50.4407967033718
50.4407967149398
50.4407967755057
50.4407970527079
3502.83317140004
31525.5013797397
31525.4969210585
3502.83293651787
50.4407941556855
50.4407940968673
50.4407940816098
50.4407940786274
50.440794078409
50.440794078754
50.4407940792232
50.4407940797339
50.4407940802652
50.4407940808148
50.4407940813823
50.4407940819638
50.4407940825574
50.4407940831605
50.4407940837714
50.4407940843864
50.4407940850046
50.440794085624
50.4407940862411
50.4407940868534
50.4407940874585
50.4407940880544
50.4407940886388
50.4407940892094
50.4407940897651
50.4407940903034
50.4407940908222
50.4407940913195
50.4407940917938
50.4407940922433
50.4407940926673
50.440794093063
50.4407940934291
50.4407940937658
50.4407940940697
50.4407940943395
50.4407940945749
50.4407940947742
50.4407940949362
50.4407940950594
50.4407940951582
50.4407940952892
50.4407940957592
50.4407940982134
50.440794111086
50.4407941693536
3502.83293718223
31525.4970733056
31525.4966860389
3502.83295346396
50.4407945029441
50.4407944911099
50.4407944881844
50.4407944878535
50.4407944881386
50.4407944885661
50.4407944890392
50.4407944895389
50.4407944900595
50.4407944905991
50.4407944911561
50.440794491728
50.4407944923126
50.4407944929074
50.4407944935103
50.4407944941185
50.4407944947298
50.4407944953419
50.4407944959522
50.4407944965582
50.4407944971576
50.4407944977481
50.4407944983274
50.4407944988936
50.4407944994446
50.4407944999786
50.4407945004934
50.4407945009875
50.440794501459
50.4407945019063
50.4407945023281
50.4407945027225
50.4407945030882
50.4407945034243
50.4407945037288
50.4407945040006
50.4407945042385
50.4407945044416
50.4407945046087
50.4407945047386
50.4407945048335
50.4407945049043
50.4407945050144
50.4407945055051
50.440794508117
50.4407945199715
3502.83295454194
31525.4967291407
31525.4972096135
3502.83302089154
50.4407954953934
50.4407954932246
50.4407954928965
50.4407954931252
50.4407954935073
50.4407954939415
50.4407954944055
50.4407954948938
50.4407954954037
50.4407954959333
50.4407954964806
50.4407954970433
50.4407954976191
50.4407954982056
50.4407954988005
50.4407954994012
50.4407955000053
50.4407955006103
50.4407955012138
50.4407955018134
50.4407955024067
50.4407955029915
50.4407955035655
50.4407955041267
50.4407955046731
50.4407955052027
50.4407955057137
50.4407955062042
50.4407955066727
50.4407955071175
50.4407955075372
50.4407955079303
50.4407955082952
50.4407955086309
50.4407955089359
50.4407955092092
50.4407955094495
50.440795509656
50.4407955098277
50.4407955099638
50.4407955100641
50.4407955101306
50.440795510176
50.4407955102701
50.4407955107675
50.4407955131158
3502.83302209715
31525.4972278096
31525.4978875813
3502.83309814272
50.4407966122185
50.4407966119781
50.4407966121678
50.4407966124991
50.4407966128889
50.4407966133131
50.4407966137649
50.4407966142414
50.4407966147403
50.4407966152596
50.4407966157969
50.4407966163502
50.440796616917
50.4407966174949
50.4407966180815
50.4407966186743
50.4407966192708
50.4407966198685
50.440796620465
50.440796621058
50.4407966216449
50.4407966222237
50.4407966227921
50.440796623348
50.4407966238895
50.4407966244146
50.4407966249214
50.4407966254083
50.4407966258736
50.4407966263158
50.4407966267333
50.4407966271247
50.4407966274887
50.4407966278241
50.4407966281296
50.4407966284042
50.4407966286468
50.4407966288565
50.4407966290328
50.4407966291749
50.4407966292825
50.4407966293562
50.4407966293987
50.4407966294255
50.4407966295127
50.4407966299783
3502.83309937596
31525.4979002552
31525.4985961532
3502.83317726011
50.4407977523956
50.4407977525234
50.4407977528018
50.4407977531401
50.4407977535188
50.4407977539296
50.4407977543685
50.440797754833
50.4407977553206
50.4407977558292
50.4407977563564
50.4407977568999
50.4407977574574
50.4407977580263
50.4407977586043
50.4407977591887
50.4407977597773
50.4407977603674
50.4407977609566
50.4407977615425
50.4407977621229
50.4407977626954
50.4407977632579
50.4407977638083
50.4407977643446
50.4407977648649
50.4407977653674
50.4407977658504
50.4407977663124
50.4407977667517
50.4407977671669
50.4407977675567
50.4407977679196
50.4407977682546
50.4407977685606
50.4407977688364
50.4407977690812
50.4407977692942
50.4407977694749
50.4407977696229
50.4407977697381
50.4407977698208
50.4407977698723
50.4407977698975
50.4407977699177
50.4407977700271
3502.83317849118
31525.4986075738
31525.4993106579
3502.83325672532
50.4407988968664
50.4407988970558
50.4407988973382
50.4407988976649
50.4407988980293
50.4407988984261
50.440798898852
50.4407988993041
50.4407988997802
50.4407989002778
50.4407989007946
50.440798901328
50.4407989018758
50.4407989024354
50.4407989030044
50.4407989035803
50.4407989041605
50.4407989047427
50.4407989053243
50.440798905903
50.4407989064765
50.4407989070425
50.4407989075988
50.4407989081434
50.4407989086743
50.4407989091897
50.4407989096877
50.4407989101667
50.4407989106251
50.4407989110614
50.4407989114742
50.4407989118622
50.440798912224
50.4407989125586
50.4407989128649
50.4407989131419
50.4407989133889
50.4407989136052
50.4407989137902
50.440798913944
50.4407989140664
50.4407989141582
50.4407989142203
50.4407989142555
50.4407989142742
50.4407989143237
3502.83325794587
31525.4993217272
31525.5000262949
3502.83333625486
50.4408000421212
50.440800042314
50.4408000425851
50.4408000428974
50.4408000432473
50.4408000436303
50.4408000440431
50.440800044483
50.4408000449473
50.4408000454336
50.4408000459396
50.4408000464627
50.4408000470005
50.4408000475505
50.4408000481103
50.4408000486772
50.4408000492488
50.4408000498228
50.4408000503966
50.4408000509678
50.4408000515341
50.4408000520933
50.4408000526432
50.4408000531819
50.4408000537073
50.4408000542175
50.4408000547108
50.4408000551857
50.4408000556404
50.4408000560736
50.4408000564838
50.4408000568699
50.4408000572305
50.4408000575646
50.4408000578712
50.4408000581494
50.4408000583984
50.4408000586178
50.4408000588072
50.4408000589665
50.4408000590959
50.4408000591961
50.4408000592683
50.4408000593147
50.4408000593429
50.4408000593877
3502.83333746252
31525.5000371962
31525.5007421491
3502.83341579671
50.4408011875257
50.4408011877116
50.4408011879695
50.4408011882677
50.4408011886036
50.4408011889731
50.440801189373
50.4408011898005
50.4408011902529
50.4408011907278
50.4408011912227
50.4408011917352
50.4408011922627
50.4408011928028
50.440801193353
50.4408011939108
50.4408011944737
50.4408011950392
50.4408011956048
50.4408011961684
50.4408011967273
50.4408011972795
50.4408011978229
50.4408011983554
50.440801198875
50.4408011993799
50.4408011998684
50.4408012003389
50.4408012007898
50.4408012012198
50.4408012016274
50.4408012020114
50.4408012023707
50.4408012027043
50.4408012030111
50.4408012032905
50.4408012035416
50.440801203764
50.4408012039576
50.4408012041222
50.4408012042582
50.4408012043663
50.4408012044478
50.4408012045045
50.440801204543
50.4408012045923
3502.8334169905
31525.5007529175
31525.5014580488
3502.83349534143
50.4408023329666
50.4408023331444
50.4408023333897
50.4408023336746
50.440802333997
50.4408023343533
50.4408023347404
50.4408023351554
50.4408023355958
50.4408023360591
50.4408023365428
50.4408023370444
50.4408023375614
50.4408023380914
50.4408023386319
50.4408023391803
50.4408023397341
50.440802340291
50.4408023408483
50.4408023414039
50.4408023419553
50.4408023425003
50.4408023430369
50.4408023435631
50.4408023440768
50.4408023445762
50.4408023450598
50.4408023455258
50.4408023459728
50.4408023463994
50.4408023468043
50.4408023471863
50.4408023475442
50.4408023478772
50.4408023481842
50.4408023484646
50.4408023487177
50.4408023489431
50.4408023491406
50.4408023493104
50.4408023494526
50.4408023495682
50.4408023496581
50.4408023497241
50.4408023497718
50.4408023498267
3502.83349652077
31525.5014686835
31525.5021739617
3502.83357488722
50.4408034784224
50.4408034785923
50.4408034788258
50.4408034790981
50.4408034794076
50.4408034797511
50.4408034801254
50.4408034805281
50.4408034809563
50.4408034814079
50.4408034818801
50.4408034823707
50.4408034828771
50.4408034833967
50.4408034839273
50.4408034844661
50.4408034850107
50.4408034855587
50.4408034861076
50.440803486655
50.4408034871987
50.4408034877365
50.4408034882662
50.4408034887858
50.4408034892935
50.4408034897874
50.4408034902658
50.4408034907273
50.4408034911703
50.4408034915935
50.4408034919956
50.4408034923754
50.4408034927319
50.4408034930642
50.4408034933714
50.4408034936528
50.4408034939078
50.4408034941361
50.4408034943375
50.4408034945121
50.4408034946602
50.4408034947827
50.4408034948804
50.4408034949546
50.4408034950105
50.4408034950705
3502.83357605183
31525.5021844638
31525.5028898812
3502.8336544337
50.4408046238884
50.4408046240508
50.4408046242732
50.4408046245335
50.4408046248306
50.4408046251614
50.4408046255232
50.4408046259135
50.4408046263296
50.4408046267692
50.44080462723
50.4408046277093
50.4408046282049
50.4408046287141
50.4408046292345
50.4408046297636
50.4408046302988
50.4408046308378
50.440804631378
50.4408046319172
50.4408046324531
50.4408046329834
50.4408046335061
50.4408046340191
50.4408046345206
50.4408046350088
50.4408046354821
50.440804635939
50.4408046363778
50.4408046367975
50.4408046371967
50.4408046375744
50.4408046379294
50.440804638261
50.4408046385683
50.4408046388506
50.4408046391075
50.4408046393386
50.4408046395437
50.440804639723
50.4408046398767
50.4408046400056
50.4408046401104
50.4408046401921
50.4408046402554
50.4408046403199
3502.83365558314
31525.5029002458
31525.503605805
3502.83373398067
50.4408057693617
50.4408057695171
50.4408057697289
50.4408057699777
50.4408057702627
50.4408057705812
50.4408057709305
50.4408057713084
50.4408057717123
50.4408057721401
50.4408057725891
50.4408057730572
50.4408057735417
50.4408057740403
50.4408057745505
50.4408057750697
50.4408057755954
50.4408057761253
50.4408057766568
50.4408057771877
50.4408057777155
50.4408057782383
50.4408057787539
50.4408057792602
50.4408057797555
50.440805780238
50.440805780706
50.4408057811581
50.4408057815928
50.440805782009
50.4408057824052
50.4408057827807
50.4408057831342
50.440805783465
50.4408057837724
50.4408057840557
50.4408057843144
50.4408057845481
50.4408057847569
50.4408057849406
50.4408057850997
50.4408057852346
50.4408057853459
50.4408057854346
50.4408057855045
50.4408057855729
3502.83373511476
31525.5036160332
31525.5043217322
3502.83381352803
50.4408069148408
50.4408069149894
50.440806915191
50.4408069154287
50.4408069157019
50.4408069160081
50.4408069163451
50.4408069167106
50.4408069171023
50.4408069175181
50.4408069179554
50.4408069184121
50.4408069188856
50.4408069193735
50.4408069198733
50.4408069203825
50.4408069208987
50.4408069214193
50.440806921942
50.4408069224644
50.4408069229843
50.4408069234995
50.4408069240078
50.4408069245074
50.4408069249964
50.440806925473
50.4408069259357
50.4408069263831
50.4408069268136
50.4408069272261
50.4408069276195
50.4408069279926
50.4408069283446
50.4408069286747
50.4408069289821
50.4408069292663
50.4408069295267
50.4408069297632
50.4408069299755
50.4408069301635
50.4408069303277
50.4408069304683
50.4408069305858
50.4408069306808
50.4408069307569
50.4408069308289
3502.83381464648
31525.5043318187
31525.5050376614
3502.83389307562
50.4408080603234
50.4408080604654
50.4408080606572
50.440808060884
50.4408080611455
50.4408080614397
50.4408080617644
50.4408080621175
50.440808062497
50.4408080629007
50.4408080633263
50.4408080637714
50.4408080642338
50.440808064711
50.4408080652004
50.4408080656996
50.4408080662061
50.4408080667175
50.4408080672313
50.4408080677453
50.4408080682571
50.4408080687646
50.4408080692656
50.4408080697584
50.4408080702411
50.4408080707119
50.4408080711693
50.4408080716118
50.4408080720382
50.440808072447
50.4408080728374
50.4408080732083
50.4408080735587
50.440808073888
50.4408080741955
50.4408080744805
50.4408080747427
50.4408080749818
50.4408080751974
50.4408080753898
50.4408080755588
50.4408080757049
50.4408080758283
50.4408080759293
50.4408080760111
50.4408080760865
3502.83389417834
31525.5050476062
31525.5057535916
3502.83397262332
50.4408092058079
50.4408092059435
50.4408092061255
50.4408092063415
50.4408092065917
50.4408092068738
50.4408092071863
50.440809207527
50.4408092078943
50.4408092082859
50.4408092086997
50.4408092091334
50.4408092095846
50.440809210051
50.44080921053
50.4408092110191
50.440809211516
50.4408092120181
50.440809212523
50.4408092130285
50.4408092135321
50.440809214032
50.4408092145258
50.4408092150118
50.4408092154881
50.440809215953
50.4408092164051
50.4408092168428
50.4408092172649
50.4408092176702
50.4408092180575
50.4408092184261
50.440809218775
50.4408092191035
50.440809219411
50.4408092196969
50.4408092199608
50.4408092202025
50.4408092204216
50.440809220618
50.4408092207919
50.4408092209434
50.4408092210723
50.4408092211791
50.4408092212665
50.440809221345
3502.83397371024
31525.5057633951
31525.5064695215
3502.834052171
50.4408103512921
50.4408103514211
50.4408103515935
50.4408103517989
50.4408103520375
50.4408103523077
50.4408103526079
50.4408103529364
50.4408103532914
50.4408103536709
50.4408103540729
50.4408103544951
50.4408103549352
50.4408103553908
50.4408103558594
50.4408103563385
50.4408103568257
50.4408103573185
50.4408103578145
50.4408103583115
50.4408103588072
50.4408103592993
50.4408103597859
50.4408103602651
50.4408103607351
50.4408103611942
50.4408103616409
50.4408103620738
50.4408103624916
50.4408103628933
50.4408103632777
50.440810363644
50.4408103639913
50.4408103643191
50.4408103646266
50.4408103649133
50.440810365179
50.4408103654231
50.4408103656456
50.4408103658463
50.440810366025
50.4408103661816
50.4408103663162
50.4408103664287
50.4408103665215
50.440810366603
3502.83405324211
31525.5064791804
31525.5071854505
3502.83413171856
50.4408114967744
50.440811496897
50.4408114970596
50.4408114972542
50.4408114974813
50.4408114977395
50.4408114980273
50.4408114983435
50.4408114986863
50.4408114990538
50.440811499444
50.4408114998547
50.4408115002837
50.4408115007285
50.4408115011867
50.4408115016559
50.4408115021335
50.4408115026171
50.4408115031043
50.4408115035928
50.4408115040804
50.4408115045648
50.4408115050443
50.4408115055167
50.4408115059804
50.4408115064337
50.4408115068751
50.4408115073032
50.4408115077168
50.4408115081149
50.4408115084964
50.4408115088604
50.4408115092063
50.4408115095332
50.4408115098408
50.4408115101284
50.4408115103957
50.4408115106426
50.4408115108684
50.4408115110732
50.4408115112567
50.4408115114187
50.4408115115589
50.440811511677
50.4408115117753
50.4408115118598
3502.83413277386
31525.5071949684
31525.5079013772
3502.83421126587
50.4408126422528
50.4408126423687
50.4408126425214
50.440812642705
50.4408126429204
50.4408126431665
50.440812643442
50.4408126437458
50.4408126440763
50.4408126444318
50.4408126448103
50.4408126452097
50.4408126456276
50.4408126460617
50.4408126465097
50.4408126469688
50.4408126474369
50.4408126479113
50.4408126483898
50.4408126488699
50.4408126493495
50.4408126498265
50.4408126502988
50.4408126507645
50.4408126512219
50.4408126516694
50.4408126521056
50.440812652529
50.4408126529385
50.440812653333
50.4408126537116
50.4408126540734
50.4408126544177
50.4408126547439
50.4408126550515
50.4408126553401
50.4408126556092
50.4408126558586
50.440812656088
50.440812656297
50.4408126564853
50.4408126566527
50.4408126567986
50.4408126569227
50.4408126570265
50.4408126571143
3502.83421230554
31525.5079107539
31525.5086173007
3502.8342908128
50.4408137877257
50.4408137878347
50.440813787977
50.4408137881494
50.4408137883529
50.4408137885867
50.4408137888498
50.4408137891412
50.4408137894595
50.440813789803
50.4408137901698
50.4408137905579
50.4408137909649
50.4408137913884
50.4408137918261
50.4408137922755
50.4408137927341
50.4408137931995
50.4408137936693
50.4408137941412
50.4408137946129
50.4408137950824
50.4408137955476
50.4408137960068
50.440813796458
50.4408137968999
50.4408137973308
50.4408137977496
50.440813798155
50.440813798546
50.4408137989217
50.4408137992813
50.4408137996242
50.4408137999497
50.4408138002575
50.4408138005469
50.4408138008179
50.44081380107
50.4408138013028
50.4408138015161
50.4408138017095
50.4408138018825
50.4408138020344
50.4408138021646
50.4408138022744
50.4408138023655
3502.83429183697
31525.5086265387
31525.5093332197
3502.83437035922
50.4408149331909
50.4408149332926
50.4408149334243
50.440814933585
50.4408149337763
50.4408149339976
50.4408149342481
50.4408149345271
50.4408149348332
50.4408149351648
50.44081493552
50.4408149358968
50.440814936293
50.4408149367061
50.4408149371338
50.4408149375734
50.4408149380228
50.4408149384792
50.4408149389405
50.4408149394043
50.4408149398682
50.4408149403304
50.4408149407887
50.4408149412413
50.4408149416865
50.4408149421228
50.4408149425486
50.4408149429628
50.4408149433642
50.4408149437518
50.4408149441247
50.4408149444822
50.4408149448237
50.4408149451486
50.4408149454565
50.440814945747
50.4408149460198
50.4408149462746
50.4408149465111
50.4408149467289
50.4408149469275
50.4408149471064
50.4408149472647
50.4408149474014
50.4408149475175
50.4408149476124
3502.83437136815
31525.5093423199
31525.5100491335
3502.83444990504
50.4408160786469
50.440816078741
50.4408160788614
50.44081607901
50.4408160791887
50.4408160793971
50.440816079635
50.4408160799015
50.4408160801953
50.4408160805151
50.4408160808589
50.4408160812246
50.4408160816101
50.4408160820129
50.4408160824307
50.4408160828609
50.4408160833011
50.4408160837488
50.4408160842017
50.4408160846575
50.4408160851139
50.4408160855688
50.4408160860203
50.4408160864666
50.4408160869058
50.4408160873366
50.4408160877575
50.4408160881672
50.4408160885647
50.4408160889489
50.4408160893191
50.4408160896746
50.4408160900147
50.4408160903391
50.4408160906472
50.4408160909387
50.4408160912135
50.4408160914712
50.4408160917114
50.4408160919339
50.440816092138
50.440816092323
50.4408160924881
50.4408160926321
50.4408160927552
50.4408160928542
3502.83445089892
31525.5100580984
31525.5107650411
3502.83452945011
50.4408172240918
50.4408172241777
50.4408172242861
50.4408172244219
50.4408172245874
50.4408172247828
50.4408172250078
50.4408172252617
50.4408172255434
50.4408172258514
50.4408172261839
50.4408172265387
50.4408172269137
50.4408172273065
50.4408172277145
50.4408172281354
50.4408172285667
50.4408172290059
50.4408172294506
50.4408172298986
50.4408172303475
50.4408172307955
50.4408172312404
50.4408172316804
50.4408172321139
50.4408172325393
50.4408172329553
50.4408172333608
50.4408172337544
50.4408172341354
50.440817234503
50.4408172348565
50.4408172351954
50.4408172355192
50.4408172358276
50.4408172361203
50.4408172363971
50.4408172366577
50.4408172369019
50.4408172371292
50.4408172373391
50.4408172375308
50.4408172377033
50.4408172378551
50.4408172379859
50.4408172380896
3502.83453042928
31525.5107738713
31525.5114809414
3502.83460899434
50.4408183695243
50.4408183696013
50.4408183696968
50.440818369819
50.4408183699708
50.4408183701527
50.4408183703646
50.440818370606
50.4408183708756
50.440818371172
50.4408183714933
50.4408183718374
50.4408183722021
50.440818372585
50.4408183729836
50.4408183733954
50.440818373818
50.4408183742488
50.4408183746856
50.440818375126
50.4408183755678
50.4408183760088
50.4408183764473
50.4408183768813
50.4408183773091
50.4408183777294
50.4408183781408
50.4408183785419
50.4408183789319
50.4408183793098
50.4408183796749
50.4408183800265
50.4408183803642
50.4408183806876
50.4408183809964
50.4408183812903
50.4408183815692
50.4408183818329
50.4408183820811
50.4408183823135
50.4408183825295
50.4408183827284
50.440818382909
50.4408183830695
50.4408183832091
50.4408183833182
3502.83460995928
31525.5114896438
31525.5121968334
3502.83468853763
50.4408195149424
50.4408195150098
50.4408195150912
50.4408195151988
50.4408195153362
50.4408195155043
50.440819515703
50.4408195159317
50.4408195161893
50.4408195164742
50.4408195167845
50.4408195171182
50.4408195174729
50.4408195178461
50.4408195182356
50.4408195186385
50.4408195190527
50.4408195194755
50.4408195199045
50.4408195203376
50.4408195207723
50.4408195212068
50.440819521639
50.4408195220671
50.4408195224896
50.4408195229049
50.4408195233117
50.4408195237088
50.4408195240952
50.4408195244702
50.4408195248328
50.4408195251827
50.4408195255193
50.4408195258424
50.4408195261516
50.4408195264468
50.4408195267279
50.4408195269947
50.4408195272472
50.4408195274849
50.4408195277075
50.4408195279141
50.4408195281036
50.4408195282739
50.4408195284234
50.4408195285389
3502.83468948878
31525.5122054121
31525.5129127168
3502.83476807988
50.4408206603451
50.4408206604017
50.4408206604676
50.4408206605596
50.4408206606819
50.4408206608357
50.4408206610209
50.440820661237
50.4408206614827
50.4408206617563
50.4408206620559
50.4408206623794
50.4408206627243
50.4408206630883
50.4408206634688
50.4408206638632
50.4408206642692
50.4408206646842
50.4408206651058
50.4408206655317
50.4408206659598
50.4408206663879
50.4408206668141
50.4408206672366
50.4408206676539
50.4408206680644
50.4408206684668
50.44082066886
50.4408206692431
50.4408206696151
50.4408206699755
50.4408206703237