/*--------------------------------*- C++ -*----------------------------------*\
  =========                 |
  \\      /  F ield         | OpenFOAM: The Open Source CFD Toolbox
   \\    /   O peration     | Website:  https://openfoam.org
    \\  /    A nd           | Version:  10
     \\/     M anipulation  |
\*---------------------------------------------------------------------------*/
FoamFile
{
    format      ascii;
    class       volScalarField;
    location    "1.4";
    object      p;
}
// * * * * * * * * * * * * * * * * * * * * * * * * * * * * * * * * * * * * * //

dimensions      [1 -1 -2 0 0 0 0];

internalField   nonuniform List<scalar> 
2500
(
100053.234976892
100053.234978242
100053.234978395
100053.234977854
100053.234977086
100053.234976399
100053.234975813
100053.234975371
100053.234975068
100053.234974895
100053.234974839
100053.23497489
100053.234975036
100053.234975266
100053.234975573
100053.234975946
100053.234976379
100053.234976864
100053.234977394
100053.234977963
100053.234978565
100053.234979195
100053.234979849
100053.234980522
100053.23498121
100053.234981911
100053.234982622
100053.23498334
100053.234984064
100053.234984793
100053.234985525
100053.234986261
100053.234987
100053.234987745
100053.234988496
100053.234989257
100053.234990029
100053.234990816
100053.234991625
100053.234992459
100053.234993326
100053.234994235
100053.234995192
100053.234996208
100053.234997281
100053.234998368
100053.23499943
100053.235000181
100053.235000183
100053.234998931
100053.232761198
100053.232761426
100053.23276155
100053.232760414
100053.232759444
100053.232758699
100053.232758102
100053.232757662
100053.232757364
100053.232757196
100053.232757145
100053.232757199
100053.232757348
100053.232757582
100053.232757891
100053.232758266
100053.2327587
100053.232759187
100053.232759717
100053.232760287
100053.23276089
100053.232761521
100053.232762175
100053.232762848
100053.232763536
100053.232764237
100053.232764948
100053.232765665
100053.232766388
100053.232767116
100053.232767847
100053.232768582
100053.23276932
100053.232770063
100053.232770812
100053.23277157
100053.23277234
100053.232773125
100053.23277393
100053.23277476
100053.232775623
100053.232776526
100053.232777479
100053.232778493
100053.232779579
100053.232780727
100053.23278199
100053.232783319
100053.232783362
100053.232783068
100053.230504314
100053.230503287
100053.230502078
100053.230500564
100053.230499489
100053.230498723
100053.230498127
100053.230497695
100053.230497406
100053.230497246
100053.230497202
100053.230497262
100053.230497416
100053.230497654
100053.230497966
100053.230498344
100053.230498781
100053.230499269
100053.230499802
100053.230500373
100053.230500976
100053.230501607
100053.230502262
100053.230502935
100053.230503623
100053.230504323
100053.230505033
100053.230505749
100053.230506471
100053.230507197
100053.230507926
100053.230508659
100053.230509395
100053.230510135
100053.230510881
100053.230511636
100053.230512401
100053.230513181
100053.230513981
100053.230514805
100053.23051566
100053.230516555
100053.230517499
100053.230518504
100053.23051959
100053.230520759
100053.230522129
100053.230523854
100053.230525222
100053.230526268
100053.228242937
100053.228241691
100053.228240415
100053.228238873
100053.228237805
100053.228237051
100053.22823647
100053.228236052
100053.228235776
100053.228235627
100053.228235593
100053.228235662
100053.228235822
100053.228236066
100053.228236383
100053.228236765
100053.228237205
100053.228237696
100053.228238231
100053.228238803
100053.228239408
100053.228240039
100053.228240694
100053.228241367
100053.228242054
100053.228242754
100053.228243462
100053.228244177
100053.228244897
100053.228245621
100053.228246347
100053.228247076
100053.228247809
100053.228248545
100053.228249287
100053.228250036
100053.228250795
100053.228251569
100053.22825236
100053.228253175
100053.22825402
100053.228254903
100053.228255834
100053.228256824
100053.228257893
100053.228259049
100053.228260417
100053.228262178
100053.228263587
100053.228264936
100053.225980494
100053.225979434
100053.225978385
100053.225976934
100053.225975895
100053.225975163
100053.225974604
100053.225974205
100053.225973946
100053.225973812
100053.22597379
100053.225973869
100053.225974038
100053.225974288
100053.225974611
100053.225974998
100053.225975442
100053.225975936
100053.225976473
100053.225977047
100053.225977652
100053.225978284
100053.225978939
100053.225979611
100053.225980298
100053.225980996
100053.225981702
100053.225982414
100053.225983131
100053.225983852
100053.225984575
100053.2259853
100053.225986027
100053.225986758
100053.225987494
100053.225988236
100053.225988987
100053.225989752
100053.225990533
100053.225991337
100053.225992169
100053.225993036
100053.225993949
100053.225994919
100053.225995965
100053.225997099
100053.225998437
100053.226000108
100053.226001275
100053.226002468
100053.223717856
100053.223716994
100053.223716125
100053.223714822
100053.223713841
100053.223713143
100053.223712614
100053.22371224
100053.223712002
100053.223711885
100053.223711877
100053.223711967
100053.223712146
100053.223712405
100053.223712734
100053.223713127
100053.223713575
100053.223714071
100053.22371461
100053.223715186
100053.223715792
100053.223716424
100053.223717078
100053.22371775
100053.223718435
100053.22371913
100053.223719834
100053.223720543
100053.223721257
100053.223721973
100053.223722691
100053.22372341
100053.223724132
100053.223724856
100053.223725584
100053.223726317
100053.22372706
100053.223727813
100053.223728582
100053.223729372
100053.223730187
100053.223731036
100053.223731928
100053.223732872
100053.223733886
100053.223734985
100053.223736268
100053.223737787
100053.223738768
100053.223739764
100053.221455276
100053.221454582
100053.221453849
100053.221452719
100053.221451815
100053.221451164
100053.221450674
100053.221450329
100053.221450114
100053.221450017
100053.221450025
100053.221450129
100053.221450319
100053.221450586
100053.221450923
100053.221451321
100053.221451773
100053.221452273
100053.221452815
100053.221453392
100053.221453999
100053.221454631
100053.221455284
100053.221455953
100053.221456636
100053.221457329
100053.221458029
100053.221458735
100053.221459443
100053.221460154
100053.221460867
100053.22146158
100053.221462294
100053.22146301
100053.221463729
100053.221464453
100053.221465184
100053.221465925
100053.221466679
100053.221467453
100053.22146825
100053.221469077
100053.221469942
100053.221470856
100053.221471832
100053.221472883
100053.221474089
100053.22147543
100053.221476274
100053.221477094
100053.21919281
100053.219192258
100053.21919164
100053.219190681
100053.219189869
100053.219189274
100053.219188827
100053.219188516
100053.219188328
100053.219188252
100053.219188278
100053.219188397
100053.219188599
100053.219188876
100053.21918922
100053.219189624
100053.219190081
100053.219190585
100053.219191128
100053.219191706
100053.219192314
100053.219192945
100053.219193597
100053.219194264
100053.219194944
100053.219195634
100053.21919633
100053.219197031
100053.219197734
100053.219198439
100053.219199145
100053.21919985
100053.219200556
100053.219201263
100053.219201972
100053.219202684
100053.219203403
100053.219204129
100053.219204868
100053.219205623
100053.219206399
100053.219207202
100053.219208038
100053.219208917
100053.219209847
100053.219210842
100053.219211958
100053.219213122
100053.219213852
100053.219214522
100053.216930462
100053.216930027
100053.216929505
100053.216928702
100053.216927987
100053.216927454
100053.216927054
100053.216926779
100053.216926621
100053.216926568
100053.216926613
100053.216926747
100053.216926962
100053.216927249
100053.216927602
100053.216928012
100053.216928474
100053.216928981
100053.216929527
100053.216930106
100053.216930713
100053.216931344
100053.216931994
100053.216932659
100053.216933336
100053.216934021
100053.216934713
100053.216935408
100053.216936106
100053.216936804
100053.216937501
100053.216938199
100053.216938895
100053.216939592
100053.216940289
100053.216940989
100053.216941693
100053.216942404
100053.216943125
100053.21694386
100053.216944613
100053.216945389
100053.216946194
100053.216947034
100053.216947916
100053.216948848
100053.216949868
100053.21695087
100053.216951507
100053.216952053
100053.214668221
100053.214667879
100053.214667439
100053.214666771
100053.214666151
100053.214665682
100053.214665332
100053.214665096
100053.214664968
100053.21466494
100053.214665005
100053.214665156
100053.214665384
100053.214665682
100053.214666043
100053.214666461
100053.214666927
100053.214667438
100053.214667986
100053.214668566
100053.214669173
100053.214669802
100053.21467045
100053.214671112
100053.214671785
100053.214672466
100053.214673152
100053.214673842
100053.214674532
100053.214675223
100053.214675912
100053.2146766
100053.214677286
100053.214677971
100053.214678656
100053.214679342
100053.214680031
100053.214680725
100053.214681427
100053.21468214
100053.214682869
100053.214683616
100053.214684386
100053.214685185
100053.214686016
100053.214686883
100053.214687808
100053.21468867
100053.214689228
100053.214689675
100053.212406074
100053.212405806
100053.212405435
100053.21240488
100053.21240435
100053.212403946
100053.212403646
100053.212403449
100053.212403353
100053.212403352
100053.212403438
100053.212403606
100053.212403848
100053.212404158
100053.212404528
100053.212404952
100053.212405424
100053.212405937
100053.212406487
100053.212407068
100053.212407675
100053.212408303
100053.212408948
100053.212409607
100053.212410275
100053.212410951
100053.212411632
100053.212412314
100053.212412997
100053.212413679
100053.212414359
100053.212415037
100053.212415712
100053.212416385
100053.212417057
100053.212417728
100053.2124184
100053.212419076
100053.212419757
100053.212420447
100053.212421149
100053.212421866
100053.212422601
100053.212423357
100053.212424135
100053.212424938
100053.212425772
100053.212426517
100053.212427007
100053.212427376
100053.210144009
100053.2101438
100053.210143489
100053.210143029
100053.210142582
100053.21014224
100053.210141989
100053.210141834
100053.21014177
100053.210141795
100053.210141903
100053.210142089
100053.210142346
100053.210142667
100053.210143046
100053.210143477
100053.210143954
100053.210144471
100053.210145023
100053.210145604
100053.21014621
100053.210146836
100053.210147479
100053.210148134
100053.210148798
100053.210149468
100053.210150142
100053.210150817
100053.210151492
100053.210152165
100053.210152835
100053.210153502
100053.210154165
100053.210154825
100053.210155482
100053.210156137
100053.210156792
100053.210157448
100053.210158108
100053.210158773
100053.210159447
100053.210160133
100053.210160831
100053.210161543
100053.21016227
100053.210163008
100053.210163758
100053.210164405
100053.210164837
100053.210165146
100053.207882018
100053.207881855
100053.207881595
100053.207881215
100053.207880844
100053.207880561
100053.207880359
100053.207880243
100053.207880213
100053.207880265
100053.207880396
100053.207880599
100053.207880871
100053.207881204
100053.207881592
100053.207882031
100053.207882513
100053.207883033
100053.207883587
100053.207884168
100053.207884773
100053.207885398
100053.207886037
100053.207886688
100053.207887347
100053.207888011
100053.207888677
100053.207889345
100053.207890011
100053.207890674
100053.207891333
100053.207891989
100053.207892639
100053.207893285
100053.207893926
100053.207894565
100053.207895201
100053.207895837
100053.207896474
100053.207897114
100053.207897759
100053.207898412
100053.207899072
100053.207899741
100053.207900416
100053.207901093
100053.207901765
100053.207902331
100053.207902712
100053.207902973
100053.205620092
100053.205619966
100053.205619751
100053.205619438
100053.205619136
100053.205618909
100053.205618754
100053.205618677
100053.20561868
100053.205618759
100053.205618912
100053.205619135
100053.205619421
100053.205619766
100053.205620165
100053.20562061
100053.205621097
100053.205621621
100053.205622176
100053.205622758
100053.205623362
100053.205623984
100053.20562462
100053.205625266
100053.205625919
100053.205626577
100053.205627236
100053.205627895
100053.205628551
100053.205629204
100053.205629852
100053.205630495
100053.205631132
100053.205631763
100053.205632388
100053.205633009
100053.205633626
100053.20563424
100053.205634853
100053.205635467
100053.205636083
100053.205636702
100053.205637325
100053.20563795
100053.205638575
100053.205639193
100053.205639795
100053.205640292
100053.205640628
100053.205640852
100053.203358223
100053.203358127
100053.203357952
100053.203357697
100053.203357456
100053.203357282
100053.203357172
100053.203357134
100053.203357168
100053.203357275
100053.203357451
100053.203357692
100053.203357994
100053.203358351
100053.203358759
100053.203359212
100053.203359704
100053.203360231
100053.203360788
100053.20336137
100053.203361973
100053.203362592
100053.203363224
100053.203363865
100053.203364512
100053.203365163
100053.203365814
100053.203366464
100053.203367111
100053.203367753
100053.203368389
100053.203369018
100053.203369641
100053.203370257
100053.203370865
100053.203371467
100053.203372064
100053.203372656
100053.203373245
100053.203373831
100053.203374417
100053.203375002
100053.203375587
100053.203376169
100053.203376745
100053.203377308
100053.203377847
100053.203378285
100053.20337858
100053.203378774
100053.201096406
100053.201096334
100053.201096194
100053.20109599
100053.201095805
100053.201095679
100053.201095613
100053.201095612
100053.201095678
100053.201095812
100053.20109601
100053.201096271
100053.201096588
100053.201096958
100053.201097375
100053.201097835
100053.201098333
100053.201098863
100053.201099422
100053.201100003
100053.201100604
100053.201101221
100053.201101849
100053.201102485
100053.201103125
100053.201103769
100053.201104412
100053.201105052
100053.201105688
100053.201106319
100053.201106942
100053.201107558
100053.201108166
100053.201108765
100053.201109356
100053.201109939
100053.201110515
100053.201111084
100053.201111648
100053.201112206
100053.201112761
100053.201113312
100053.201113859
100053.201114399
100053.201114928
100053.201115439
100053.20111592
100053.201116306
100053.201116566
100053.201116735
100053.198834634
100053.198834582
100053.198834474
100053.198834315
100053.19883418
100053.1988341
100053.198834074
100053.198834109
100053.198834207
100053.198834367
100053.198834589
100053.198834868
100053.1988352
100053.198835583
100053.19883601
100053.198836478
100053.19883698
100053.198837514
100053.198838074
100053.198838655
100053.198839254
100053.198839868
100053.198840491
100053.198841121
100053.198841756
100053.198842391
100053.198843025
100053.198843656
100053.198844281
100053.1988449
100053.19884551
100053.198846112
100053.198846704
100053.198847287
100053.19884786
100053.198848423
100053.198848977
100053.198849522
100053.19885006
100053.198850591
100053.198851114
100053.198851631
100053.19885214
100053.198852639
100053.198853122
100053.198853584
100053.198854013
100053.198854352
100053.198854581
100053.198854728
100053.196572901
100053.196572867
100053.196572787
100053.196572669
100053.196572579
100053.196572542
100053.196572556
100053.196572625
100053.196572754
100053.19657294
100053.196573184
100053.196573482
100053.196573831
100053.196574225
100053.196574663
100053.196575137
100053.196575645
100053.196576182
100053.196576743
100053.196577324
100053.196577921
100053.196578531
100053.19657915
100053.196579775
100053.196580402
100053.196581029
100053.196581654
100053.196582275
100053.196582889
100053.196583495
100053.196584092
100053.196584679
100053.196585255
100053.196585821
100053.196586374
100053.196586917
100053.196587449
100053.196587971
100053.196588482
100053.196588984
100053.196589476
100053.196589959
100053.196590431
100053.196590889
100053.196591329
100053.196591744
100053.196592125
100053.196592422
100053.196592622
100053.196592751
100053.194311202
100053.194311184
100053.19431113
100053.194311049
100053.194311001
100053.194311004
100053.194311054
100053.194311158
100053.194311316
100053.194311529
100053.194311795
100053.194312111
100053.194312475
100053.194312883
100053.19431333
100053.194313812
100053.194314325
100053.194314865
100053.194315427
100053.194316007
100053.194316603
100053.194317209
100053.194317823
100053.194318442
100053.194319062
100053.194319681
100053.194320296
100053.194320906
100053.194321508
100053.194322102
100053.194322685
100053.194323257
100053.194323817
100053.194324364
100053.194324899
100053.194325421
100053.19432593
100053.194326427
100053.194326911
100053.194327384
100053.194327845
100053.194328294
100053.194328728
100053.194329147
100053.194329545
100053.194329916
100053.194330252
100053.194330512
100053.194330686
100053.194330798
100053.192049533
100053.192049529
100053.192049498
100053.192049451
100053.192049443
100053.192049483
100053.192049569
100053.192049705
100053.192049892
100053.192050131
100053.192050419
100053.192050754
100053.192051134
100053.192051554
100053.19205201
100053.1920525
100053.192053018
100053.192053561
100053.192054124
100053.192054704
100053.192055297
100053.1920559
100053.192056509
100053.192057121
100053.192057734
100053.192058344
100053.19205895
100053.192059549
100053.192060139
100053.192060719
100053.192061288
100053.192061845
100053.192062388
100053.192062917
100053.192063432
100053.192063932
100053.192064419
100053.19206489
100053.192065348
100053.192065792
100053.192066221
100053.192066635
100053.192067033
100053.192067413
100053.19206777
100053.1920681
100053.192068394
100053.192068618
100053.192068768
100053.192068867
100053.189787888
100053.189787897
100053.189787887
100053.189787872
100053.1897879
100053.189787977
100053.189788097
100053.189788264
100053.18978848
100053.189788744
100053.189789054
100053.189789407
100053.189789802
100053.189790235
100053.189790702
100053.189791198
100053.189791721
100053.189792267
100053.189792831
100053.189793411
100053.189794002
100053.189794601
100053.189795205
100053.18979581
100053.189796415
100053.189797017
100053.189797612
100053.1897982
100053.189798778
100053.189799345
100053.189799899
100053.18980044
100053.189800966
100053.189801477
100053.189801972
100053.18980245
100053.189802913
100053.18980336
100053.18980379
100053.189804204
100053.189804602
100053.189804982
100053.189805344
100053.189805685
100053.189806003
100053.189806293
100053.189806548
100053.189806739
100053.189806867
100053.189806951
100053.187526262
100053.187526283
100053.187526294
100053.18752631
100053.187526373
100053.187526483
100053.187526636
100053.187526834
100053.187527078
100053.187527366
100053.187527698
100053.18752807
100053.18752848
100053.187528925
100053.187529402
100053.187529906
100053.187530434
100053.187530982
100053.187531548
100053.187532126
100053.187532715
100053.18753331
100053.187533909
100053.187534508
100053.187535105
100053.187535697
100053.187536282
100053.187536859
100053.187537425
100053.187537978
100053.187538517
100053.187539042
100053.18753955
100053.187540042
100053.187540517
100053.187540974
100053.187541413
100053.187541834
100053.187542237
100053.187542621
100053.187542987
100053.187543333
100053.187543659
100053.187543963
100053.187544243
100053.187544494
100053.187544712
100053.187544871
100053.187544978
100053.18754505
100053.185264652
100053.185264684
100053.185264715
100053.185264759
100053.185264855
100053.185264998
100053.185265183
100053.185265411
100053.185265682
100053.185265995
100053.185266348
100053.185266739
100053.185267165
100053.185267622
100053.185268108
100053.185268619
100053.185269153
100053.185269704
100053.18527027
100053.185270848
100053.185271434
100053.185272025
100053.185272618
100053.185273211
100053.1852738
100053.185274383
100053.185274958
100053.185275523
100053.185276076
100053.185276615
100053.18527714
100053.185277648
100053.185278139
100053.185278612
100053.185279066
100053.1852795
100053.185279916
100053.185280311
100053.185280686
100053.18528104
100053.185281374
100053.185281687
100053.185281978
100053.185282245
100053.185282486
100053.185282701
100053.185282882
100053.185283012
100053.185283098
100053.185283158
100053.183003052
100053.183003095
100053.183003145
100053.183003217
100053.183003345
100053.18300352
100053.183003736
100053.183003994
100053.183004292
100053.18300463
100053.183005004
100053.183005413
100053.183005853
100053.183006323
100053.183006819
100053.183007338
100053.183007876
100053.18300843
100053.183008997
100053.183009574
100053.183010158
100053.183010745
100053.183011332
100053.183011918
100053.183012499
100053.183013073
100053.183013637
100053.18301419
100053.183014731
100053.183015256
100053.183015765
100053.183016257
100053.18301673
100053.183017184
100053.183017617
100053.18301803
100053.183018421
100053.18301879
100053.183019137
100053.183019462
100053.183019764
100053.183020043
100053.183020298
100053.183020529
100053.183020734
100053.183020911
100053.183021058
100053.183021158
100053.183021225
100053.183021274
100053.180741459
100053.180741512
100053.18074158
100053.180741679
100053.180741839
100053.180742045
100053.180742293
100053.180742579
100053.180742904
100053.180743266
100053.180743661
100053.180744088
100053.180744544
100053.180745026
100053.180745532
100053.180746058
100053.180746601
100053.180747158
100053.180747726
100053.180748302
100053.180748883
100053.180749466
100053.180750048
100053.180750626
100053.180751199
100053.180751764
100053.180752318
100053.180752859
100053.180753387
100053.180753898
100053.180754392
100053.180754867
100053.180755322
100053.180755757
100053.180756169
100053.180756559
100053.180756926
100053.180757269
100053.180757589
100053.180757884
100053.180758154
100053.180758399
100053.180758619
100053.180758814
100053.180758982
100053.180759124
100053.180759235
100053.180759308
100053.180759356
100053.180759394
100053.178479868
100053.178479932
100053.178480018
100053.178480144
100053.178480334
100053.178480572
100053.17848085
100053.178481166
100053.178481517
100053.178481903
100053.178482319
100053.178482764
100053.178483235
100053.17848373
100053.178484245
100053.178484778
100053.178485326
100053.178485886
100053.178486455
100053.17848703
100053.178487608
100053.178488187
100053.178488763
100053.178489335
100053.1784899
100053.178490455
100053.178490998
100053.178491528
100053.178492042
100053.17849254
100053.178493018
100053.178493477
100053.178493914
100053.178494329
100053.178494721
100053.178495089
100053.178495431
100053.178495748
100053.17849604
100053.178496305
100053.178496543
100053.178496755
100053.17849694
100053.178497098
100053.17849723
100053.178497336
100053.178497414
100053.178497458
100053.178497487
100053.178497514
100053.176218275
100053.176218348
100053.176218452
100053.176218606
100053.176218827
100053.176219096
100053.176219404
100053.176219749
100053.176220128
100053.176220537
100053.176220974
100053.176221438
100053.176221924
100053.176222431
100053.176222956
100053.176223496
100053.176224049
100053.176224611
100053.176225181
100053.176225755
100053.176226331
100053.176226905
100053.176227476
100053.176228041
100053.176228598
100053.176229143
100053.176229676
100053.176230194
100053.176230696
100053.176231179
100053.176231642
100053.176232084
100053.176232504
100053.1762329
100053.17623327
100053.176233615
100053.176233934
100053.176234225
100053.176234488
100053.176234724
100053.17623493
100053.176235108
100053.176235258
100053.17623538
100053.176235475
100053.176235546
100053.176235589
100053.176235605
100053.176235616
100053.176235632
100053.173956675
100053.173956759
100053.173956882
100053.173957062
100053.173957315
100053.173957616
100053.173957955
100053.173958329
100053.173958734
100053.173959167
100053.173959626
100053.173960107
100053.173960609
100053.173961128
100053.173961663
100053.17396221
100053.173962768
100053.173963333
100053.173963903
100053.173964477
100053.17396505
100053.17396562
100053.173966185
100053.173966743
100053.173967292
100053.173967828
100053.17396835
100053.173968857
100053.173969345
100053.173969815
100053.173970263
100053.173970688
100053.17397109
100053.173971466
100053.173971817
100053.173972139
100053.173972434
100053.173972699
100053.173972934
100053.173973139
100053.173973314
100053.173973458
100053.173973573
100053.173973659
100053.173973717
100053.173973751
100053.17397376
100053.173973748
100053.173973739
100053.173973744
100053.171695065
100053.171695159
100053.171695301
100053.171695509
100053.171695795
100053.171696127
100053.171696498
100053.171696901
100053.171697333
100053.171697791
100053.171698271
100053.17169877
100053.171699287
100053.171699818
100053.171700362
100053.171700917
100053.17170148
100053.171702048
100053.171702619
100053.171703191
100053.171703762
100053.171704328
100053.171704888
100053.171705439
100053.171705979
100053.171706506
100053.171707018
100053.171707513
100053.171707989
100053.171708444
100053.171708877
100053.171709287
100053.171709671
100053.171710028
100053.171710357
100053.171710658
100053.171710928
100053.171711168
100053.171711375
100053.171711551
100053.171711693
100053.171711804
100053.171711883
100053.171711932
100053.171711953
100053.171711951
100053.171711924
100053.171711882
100053.171711854
100053.171711847
100053.16943344
100053.169433546
100053.169433707
100053.169433944
100053.169434263
100053.169434629
100053.169435031
100053.169435465
100053.169435924
100053.169436406
100053.169436907
100053.169437425
100053.169437957
100053.169438501
100053.169439054
100053.169439616
100053.169440184
100053.169440754
100053.169441327
100053.169441898
100053.169442466
100053.169443028
100053.169443582
100053.169444127
100053.169444659
100053.169445177
100053.169445679
100053.169446162
100053.169446626
100053.169447067
100053.169447485
100053.169447878
100053.169448245
100053.169448583
100053.169448892
100053.169449171
100053.169449417
100053.169449631
100053.169449811
100053.169449956
100053.169450067
100053.169450144
100053.169450187
100053.169450199
100053.169450183
100053.169450142
100053.169450079
100053.169450007
100053.169449958
100053.169449939
100053.167171795
100053.167171914
100053.167172095
100053.167172363
100053.167172717
100053.167173117
100053.167173553
100053.167174017
100053.167174504
100053.167175011
100053.167175533
100053.167176069
100053.167176616
100053.167177172
100053.167177736
100053.167178305
100053.167178877
100053.16717945
100053.167180024
100053.167180594
100053.167181159
100053.167181718
100053.167182267
100053.167182805
100053.167183329
100053.167183838
100053.167184329
100053.167184802
100053.167185253
100053.167185681
100053.167186084
100053.167186461
100053.167186811
100053.16718713
100053.167187419
100053.167187676
100053.167187899
100053.167188087
100053.16718824
100053.167188355
100053.167188434
100053.167188477
100053.167188484
100053.167188458
100053.167188403
100053.167188324
100053.167188223
100053.167188119
100053.167188049
100053.167188017
100053.164910128
100053.164910259
100053.164910463
100053.164910764
100053.164911155
100053.164911591
100053.16491206
100053.164912556
100053.164913072
100053.164913603
100053.164914147
100053.164914701
100053.164915263
100053.164915832
100053.164916405
100053.164916981
100053.164917558
100053.164918134
100053.164918708
100053.164919278
100053.164919841
100053.164920395
100053.164920939
100053.164921471
100053.164921987
100053.164922488
100053.164922969
100053.16492343
100053.164923869
100053.164924284
100053.164924673
100053.164925035
100053.164925367
100053.164925668
100053.164925937
100053.164926173
100053.164926372
100053.164926535
100053.164926661
100053.164926747
100053.164926794
100053.164926803
100053.164926773
100053.164926709
100053.164926614
100053.164926494
100053.164926353
100053.164926215
100053.164926122
100053.164926077
100053.162648432
100053.162648578
100053.162648806
100053.162649141
100053.162649572
100053.162650046
100053.162650551
100053.162651079
100053.162651624
100053.162652181
100053.162652747
100053.162653319
100053.162653897
100053.162654477
100053.16265506
100053.162655643
100053.162656225
100053.162656804
100053.162657379
100053.162657948
100053.162658508
100053.162659059
100053.162659598
100053.162660123
100053.162660632
100053.162661124
100053.162661596
100053.162662046
100053.162662473
100053.162662875
100053.16266325
100053.162663596
100053.162663912
100053.162664195
100053.162664445
100053.162664659
100053.162664836
100053.162664974
100053.162665073
100053.16266513
100053.162665145
100053.162665119
100053.162665053
100053.162664949
100053.162664813
100053.162664651
100053.162664467
100053.162664293
100053.162664176
100053.162664115
100053.160386705
100053.160386868
100053.160387121
100053.160387494
100053.160387968
100053.160388483
100053.160389025
100053.160389587
100053.160390161
100053.160390743
100053.160391331
100053.160391922
100053.160392514
100053.160393107
100053.160393699
100053.160394289
100053.160394876
100053.160395458
100053.160396034
100053.160396602
100053.16039716
100053.160397707
100053.160398241
100053.16039876
100053.160399262
100053.160399745
100053.160400208
100053.160400648
100053.160401063
100053.160401453
100053.160401814
100053.160402145
100053.160402445
100053.160402711
100053.160402942
100053.160403135
100053.16040329
100053.160403404
100053.160403475
100053.160403503
100053.160403487
100053.160403427
100053.160403323
100053.160403179
100053.160403
100053.160402793
100053.160402563
100053.16040235
100053.160402206
100053.160402129
100053.158124941
100053.158125122
100053.158125404
100053.158125819
100053.15812634
100053.158126897
100053.158127479
100053.158128075
100053.15812868
100053.158129288
100053.158129898
100053.158130507
100053.158131114
100053.158131719
100053.158132321
100053.158132918
100053.158133509
100053.158134094
100053.158134671
100053.158135238
100053.158135794
100053.158136338
100053.158136867
100053.15813738
100053.158137875
100053.15813835
100053.158138804
100053.158139233
100053.158139638
100053.158140015
100053.158140363
100053.15814068
100053.158140964
100053.158141213
100053.158141425