/*--------------------------------*- C++ -*----------------------------------*\
  =========                 |
  \\      /  F ield         | OpenFOAM: The Open Source CFD Toolbox
   \\    /   O peration     | Website:  https://openfoam.org
    \\  /    A nd           | Version:  10
     \\/     M anipulation  |
\*---------------------------------------------------------------------------*/
FoamFile
{
    format      ascii;
    class       volScalarField;
    location    "1.4";
    object      p_rgh;
}
// * * * * * * * * * * * * * * * * * * * * * * * * * * * * * * * * * * * * * //

dimensions      [1 -1 -2 0 0 0 0];

internalField   nonuniform List<scalar> 
2500
(
53.3481256842351
53.3481636677607
53.3481734395755
53.3481745159661
53.3481739992567
53.3481733525405
53.3481727735198
53.3481723329023
53.3481720313721
53.3481718587427
53.3481718039257
53.3481718548428
53.3481720007403
53.348172231752
53.3481725385063
53.3481729124323
53.3481733454391
53.3481738303817
53.3481743605225
53.3481749295461
53.3481755319226
53.348176162559
53.3481768166384
53.3481774896063
53.348178178232
53.3481788794597
53.3481795901753
53.3481803083996
53.3481810324738
53.3481817606953
53.3481824927439
53.3481832285033
53.3481839681917
53.3481847127987
53.3481854639249
53.3481862239714
53.3481869958778
53.3481877834856
53.348188591408
53.3481894255092
53.3481902925705
53.3481912004791
53.3481921577477
53.3481931710558
53.348194235281
53.348195273531
53.348196067338
53.3481951790891
53.3481854128913
53.3481477034074
53.3492358457588
53.3492916444084
53.3493233738991
53.3493290252663
53.3493293881911
53.3493288961035
53.3493283447169
53.3493279126997
53.3493276167428
53.3493274490611
53.3493273982458
53.3493274526845
53.3493276016088
53.3493278350797
53.3493281438714
53.3493285194563
53.3493289539474
53.3493294400396
53.3493299710244
53.3493305407756
53.3493311437633
53.3493317747634
53.3493324290321
53.3493331020873
53.3493337905966
53.3493344915187
53.3493352018122
53.3493359194545
53.349336642772
53.3493373701203
53.3493381012086
53.3493388359348
53.3493395740661
53.3493403167959
53.3493410661176
53.3493418240978
53.3493425936176
53.3493433784315
53.3493441831961
53.3493450135866
53.349345876326
53.3493467790977
53.3493477298325
53.3493487315864
53.3493497588643
53.3493506178638
53.3493505026709
53.3493450970564
53.3493130472634
53.3492556803394
53.349817319875
53.3498540436995
53.3498755647743
53.3498796282656
53.349879685411
53.3498791399325
53.3498785848496
53.3498781599337
53.3498778725334
53.3498777127825
53.3498776688502
53.3498777291679
53.3498778829817
53.3498781205708
53.3498784327821
53.3498788111756
53.3498792479659
53.3498797359352
53.3498802684335
53.3498808392906
53.3498814429768
53.3498820742971
53.3498827286239
53.3498834017228
53.349884089941
53.3498847902083
53.3498854997742
53.3498862163106
53.3498869381583
53.3498876640369
53.3498883933498
53.3498891258787
53.3498898616672
53.3498906017921
53.3498913480144
53.3498921023711
53.3498928678018
53.3498936479155
53.3498944472231
53.3498952713999
53.3498961269361
53.349897021486
53.3498979636352
53.3498989594227
53.3498999964213
53.3499009298102
53.349901166468
53.3498973643
53.3498755674227
53.3498361407983
53.3500629053597
53.3500793258572
53.3500865431415
53.3500873483281
53.3500867571274
53.3500860960194
53.3500855321618
53.3500851173158
53.3500848422264
53.3500846937241
53.3500846594543
53.3500847279647
53.3500848887488
53.3500851321296
53.3500854491867
53.3500858315674
53.3500862716464
53.3500867622352
53.3500872967561
53.350087869112
53.3500884737878
53.3500891056465
53.350089760148
53.3500904330431
53.3500911207375
53.3500918200734
53.3500925283442
53.3500932432798
53.3500939631776
53.3500946867571
53.3500954133488
53.3500961426907
53.3500968750159
53.3500976112118
53.3500983528502
53.3500991019828
53.3500998614472
53.3501006347506
53.350101426302
53.3501022414712
53.3501030866901
53.3501039695839
53.3501048993494
53.350105886173
53.3501069371705
53.3501080010901
53.3501089041238
53.350108331113
53.3501010222535
53.3500827643584
53.3501572649839
53.3501628220547
53.3501642720366
53.3501636046421
53.3501627302612
53.3501620298484
53.3501614770503
53.3501610793901
53.350160820657
53.3501606864447
53.3501606642676
53.3501607429353
53.3501609121886
53.350161162627
53.3501614854758
53.3501618725859
53.3501623164484
53.3501628099912
53.3501633467386
53.3501639206661
53.3501645262877
53.3501651585393
53.3501658128953
53.3501664851792
53.3501671718404
53.3501678696484
53.3501685759693
53.3501692885184
53.3501700055785
53.3501707258984
53.3501714487211
53.3501721737703
53.3501729012933
53.3501736320904
53.350174367617
53.3501751098374
53.3501758614875
53.3501766258996
53.3501774073375
53.3501782109088
53.3501790427981
53.3501799104415
53.3501808230503
53.3501817921933
53.3501828322624
53.3501839363162
53.3501851196779
53.3501860132965
53.350184596391
53.3501782228559
53.3501970673678
53.3501983383467
53.3501981120935
53.3501970365178
53.350196104424
53.3501954163366
53.3501948898775
53.3501945159805
53.3501942775329
53.3501941603899
53.3501941524737
53.3501942429866
53.3501944220625
53.3501946805627
53.3501950100035
53.3501954024105
53.3501958504348
53.3501963471354
53.3501968861528
53.3501974615647
53.3501980679575
53.350198700311
53.3501993541431
53.3502000253648
53.3502007103816
53.3502014060505
53.3502021096647
53.3502028190269
53.3502035324054
53.3502042484906
53.3502049664967
53.350205686118
53.3502064075583
53.3502071316034
53.3502078595484
53.350208593256
53.3502093353018
53.3502100889018
53.3502108580433
53.3502116475574
53.3502124632651
53.3502133122529
53.3502142032376
53.3502151475259
53.3502161601937
53.350217250234
53.3502184873942
53.3502197819616
53.3502200949879
53.3502185873076
53.3502199438663
53.35021986629
53.350219286498
53.3502182156226
53.3502173257875
53.3502166776889
53.3502161877404
53.3502158430638
53.3502156283939
53.3502155307942
53.350215538987
53.3502156428003
53.3502158327901
53.3502161002252
53.3502164368838
53.3502168350242
53.3502172874723
53.3502177874761
53.3502183287783
53.350218905558
53.3502195125038
53.3502201446536
53.3502207975689
53.3502214672335
53.3502221500676
53.3502228429425
53.3502235431952
53.3502242485993
53.3502249574231
53.3502256683423
53.3502263805567
53.3502270937024
53.3502278079686
53.3502285239811
53.3502292429766
53.3502299667016
53.3502306975715
53.3502314385842
53.3502321934502
53.3502329667099
53.3502337637183
53.3502345909947
53.3502354564262
53.3502363700391
53.3502373449883
53.3502383938903
53.3502395877731
53.3502408703062
53.3502415549883
53.3502416345436
53.3502381619037
53.3502377735858
53.3502371899813
53.3502362460131
53.3502354373486
53.3502348433976
53.3502343966102
53.3502340854466
53.350233897494
53.3502338215767
53.3502338475228
53.350233965888
53.3502341677959
53.3502344448934
53.3502347892791
53.3502351935022
53.3502356506069
53.3502361539868
53.3502366975299
53.3502372755611
53.350237882798
53.3502385144093
53.3502391660295
53.3502398336277
53.3502405137406
53.3502412032103
53.3502418994176
53.350242600136
53.3502433036047
53.3502440084994
53.3502447140054
53.3502454196569
53.3502461256285
53.3502468324441
53.3502475412388
53.3502482536278
53.350248971823
53.3502496986184
53.3502504374337
53.3502511924016
53.3502519684262
53.3502527712408
53.3502536076994
53.3502544860676
53.3502554166043
53.3502564106166
53.3502575237508
53.3502586726245
53.3502593676822
53.3502598367486
53.3502552595455
53.3502548649703
53.3502543505165
53.3502535516018
53.3502528367389
53.3502523039642
53.3502519043832
53.3502516298468
53.3502514709689
53.3502514185384
53.3502514636202
53.3502515975997
53.3502518122405
53.3502520996262
53.3502524522191
53.3502528628451
53.350253324752
53.350253831537
53.3502543772775
53.3502549563564
53.350255563666
53.3502561944333
53.3502568443364
53.3502575094462
53.3502581862849
53.3502588717674
53.3502595632599
53.3502602585795
53.3502609559364
53.3502616539918
53.3502623518725
53.350263049113
53.3502637457714
53.3502644423133
53.350265139743
53.3502658395155
53.3502665436827
53.350267254762
53.3502679758967
53.3502687107684
53.3502694637282
53.3502702397236
53.3502710443572
53.3502718840318
53.3502727658924
53.3502736981027
53.3502747180028
53.3502757159586
53.3502763451543
53.3502768406033
53.3502721629047
53.3502718310629
53.3502713918569
53.350270724899
53.3502701048565
53.3502696360229
53.3502692858165
53.3502690499299
53.3502689218731
53.3502688943408
53.3502689596935
53.350269110204
53.3502693382907
53.3502696364885
53.3502699976525
53.3502704148996
53.3502708817396
53.3502713919588
53.3502719398093
53.3502725197905
53.3502731269109
53.350273756485
53.350274404278
53.3502750664193
53.3502757394745
53.3502764204022
53.3502771065978
53.3502777958201
53.3502784863522
53.3502791767824
53.3502798662084
53.3502805541211
53.3502812405059
53.350281925741
53.3502826106851
53.3502832966624
53.3502839855209
53.3502846795163
53.3502853814716
53.3502860946464
53.3502868227661
53.3502875699487
53.3502883405745
53.3502891390963
53.3502899698797
53.3502908373048
53.350291762501
53.3502926236688
53.3502931798866
53.3502936148871
53.3502890903183
53.3502888252842
53.350288453963
53.3502878995787
53.3502873699472
53.3502869651275
53.3502866649942
53.350286468878
53.3502863727917
53.3502863712201
53.3502864577167
53.3502866255003
53.3502868676005
53.350287177047
53.3502875471167
53.3502879712032
53.3502884430782
53.3502889567317
53.3502895065758
53.35029008727
53.3502906939539
53.3502913220291
53.3502919673629
53.350292626099
53.350293294905
53.350293970725
53.350294650998
53.3502953335119
53.3502960164769
53.3502966985398
53.3502973787399
53.3502980564808
53.3502987317042
53.3502994046721
53.350300076112
53.3503007472173
53.3503014196031
53.350302095263
53.3503027767147
53.3503034667374
53.3503041685035
53.3503048852581
53.3503056202026
53.3503063760581
53.350307154702
53.35030795692
53.3503087912977
53.3503095361521
53.3503100260277
53.3503103925759
53.3503060850344
53.3503058768692
53.3503055650071
53.3503051050793
53.3503046589612
53.3503043164237
53.3503040659998
53.3503039100178
53.3503038465424
53.3503038716299
53.3503039799834
53.3503041656077
53.3503044222016
53.350304743275
53.3503051224834
53.3503055535693
53.3503060305375
53.3503065475816
53.350307099332
53.3503076805937
53.3503082866082
53.350308912879
53.350309555346
53.3503102102841
53.3503108743462
53.3503115445492
53.350312218332
53.3503128935117
53.3503135682986
53.3503142412956
53.350314911484
53.3503155782673
53.3503162414563
53.3503169012547
53.3503175582446
53.3503182134446
53.3503188682662
53.3503195244848
53.3503201842104
53.3503208498441
53.3503215239471
53.350322208993
53.3503229071212
53.3503236195102
53.3503243459563
53.3503250842914
53.3503258341661
53.3503264818137
53.3503269132925
53.3503272214875
53.3503231495852
53.3503229869675
53.3503227268375
53.350322346334
53.3503219760314
53.3503216929821
53.3503214911616
53.3503213750955
53.3503213444928
53.3503213966615
53.3503215273231
53.3503217312391
53.350322002676
53.3503223356674
53.3503227242472
53.3503231624345
53.3503236445395
53.3503241649887
53.350324718529
53.3503253001836
53.3503259052814
53.3503265294567
53.3503271687514
53.3503278194694
53.3503284783365
53.3503291424277
53.350329809211
53.350330476489
53.350331142472
53.3503318057337
53.3503324652265
53.3503331202955
53.3503337706788
53.3503344164492
53.3503350580868
53.3503356964502
53.3503363327327
53.3503369684622
53.3503376054141
53.350338245582
53.3503388909885
53.3503395433945
53.3503402039642
53.3503408726683
53.3503415476298
53.3503422244539
53.3503428970726
53.3503434632003
53.3503438435
53.3503441047505
53.3503402786591
53.3503401524795
53.3503399376787
53.3503396246815
53.3503393226565
53.3503390956757
53.3503389408579
53.3503388640529
53.3503388662211
53.35033894566
53.3503390988917
53.3503393213905
53.3503396079759
53.3503399531182
53.350340351215
53.35034079662
53.3503412838909
53.3503418076725
53.35034236293
53.3503429447883
53.3503435487364
53.3503441705543
53.3503448063275
53.3503454524471
53.3503461057262
53.3503467632399
53.3503474225145
53.3503480813379
53.3503487379348
53.3503493908356
53.3503500389779
53.3503506816196
53.3503513184405
53.3503519494261
53.350352574882
53.3503531955503
53.350353812406
53.3503544267151
53.3503550399619
53.3503556537617
53.3503562696133
53.3503568886808
53.3503575113282
53.3503581365367
53.3503587612213
53.3503593794885
53.3503599820397
53.3503604790458
53.3503608143219
53.350361038174
53.3503574649076
53.3503573682392
53.3503571931506
53.3503569383174
53.3503566976724
53.3503565232386
53.3503564135026
53.3503563750564
53.3503564096318
53.3503565162828
53.35035669223
53.3503569335153
53.3503572354384
53.3503575928771
53.3503580006363
53.3503584533319
53.3503589457832
53.3503594728681
53.3503600296972
53.3503606116137
53.3503612142231
53.3503618334071
53.3503624653385
53.3503631065396
53.3503637538379
53.3503644043667
53.3503650556522
53.3503657055116
53.3503663521842
53.3503669941565
53.3503676303226
53.3503682599112
53.3503688824858
53.3503694979445
53.3503701065056
53.3503707086929
53.3503713052924
53.3503718973807
53.3503724861221
53.350373072768
53.3503736584098
53.3503742436733
53.3503748282965
53.3503754105332
53.3503759864689
53.3503765493952
53.3503770885
53.3503775260033
53.3503778215672
53.3503780150932
53.3503747022769
53.3503746301285
53.3503744902846
53.3503742863395
53.3503741009772
53.3503739755251
53.3503739088337
53.3503739076259
53.3503739740991
53.3503741077875
53.3503743064648
53.3503745666094
53.3503748839867
53.3503752538818
53.3503756713617
53.3503761313914
53.3503766290087
53.3503771593241
53.3503777176375
53.3503782994667
53.350378900519
53.3503795168217
53.3503801446641
53.3503807805828
53.3503814215364
53.3503820646729
53.3503827075474
53.3503833479917
53.350383984216
53.350384614736
53.3503852383728
53.3503858542826
53.3503864619997
53.3503870612767
53.35038765223
53.3503882352234
53.350388810868
53.3503893799934
53.3503899435309
53.3503905023827
53.3503910573199
53.3503916084737
53.3503921551746
53.3503926951526
53.3503932240419
53.3503937348287
53.3503942163661
53.3503946018172
53.3503948620491
53.350395030604
53.3503919843934
53.3503919328796
53.3503918243223
53.3503916655609
53.3503915302863
53.3503914505127
53.3503914247995
53.3503914596513
53.3503915573674
53.3503917178168
53.3503919390932
53.3503922181408
53.3503925510595
53.3503929334547
53.3503933607426
53.350393828121
53.3503943309042
53.350394864392
53.3503954241023
53.3503960056551
53.3503966050048
53.3503972182079
53.3503978416702
53.3503984720592
53.3503991063189
53.3503997416847
53.3504003757553
53.3504010063625
53.3504016316874
53.3504022502602
53.3504028608586
53.3504034625803
53.3504040548578
53.3504046373564
53.3504052100907
53.3504057732498
53.3504063272994
53.3504068728362
53.3504074105731
53.3504079411359
53.3504084649612
53.350408981918
53.3504094909295
53.3504099894781
53.3504104730091
53.3504109347123
53.3504113637609
53.3504117029224
53.3504119316058
53.3504120789439
53.3504093060765
53.350409272447
53.3504091921641
53.3504090740607
53.35040898445
53.3504089473136
53.3504089606286
53.3504090303031
53.3504091585637
53.3504093453957
53.3504095891694
53.3504098870762
53.3504102355364
53.3504106304754
53.3504110675858
53.3504115423129
53.350412050233
53.3504125868349
53.3504131478403
53.3504137290292
53.3504143264727
53.350414936358
53.3504155552364
53.3504161797609
53.3504168070504
53.3504174343252
53.3504180592281
53.3504186795908
53.350419293638
53.3504198998126
53.3504204969067
53.350421083931
53.3504216602596
53.350422225456
53.3504227793892
53.3504233221611
53.3504238540481
53.3504243754578
53.3504248868849
53.3504253887368
53.3504258812027
53.3504263638897
53.3504268355609
53.3504272935825
53.3504277334723
53.3504281488567
53.3504285296658
53.350428827107
53.3504290272249
53.3504291562713
53.3504266616219
53.3504266436066
53.350426588906
53.35042650791
53.3504264603398
53.3504264631774
53.3504265137017
53.3504266170348
53.3504267751268
53.3504269879195
53.3504272539576
53.3504275706364
53.350427934638
53.3504283421353
53.3504287890682
53.3504292711732
53.3504297841864
53.3504303238733
53.350430886072
53.3504314667516
53.3504320621287
53.3504326685506
53.3504332825833
53.3504339010688
53.3504345210968
53.3504351399897
53.3504357554048
53.3504363651882
53.3504369675793
53.3504375609918
53.3504381441453
53.3504387160501
53.3504392759787
53.3504398233927
53.3504403580882
53.3504408799781
53.3504413892078
53.3504418860248
53.3504423707345
53.3504428435554
53.3504433044436
53.3504437529191
53.350444187643
53.350444605996
53.3504450038017
53.3504453753558
53.3504457114905
53.350445970791
53.3504461448756
53.3504462576821
53.3504440464603
53.3504440425459
53.350444011463
53.3504439646786
53.3504439561075
53.35044399662
53.35044408268
53.3504442185804
53.3504444058053
53.3504446441948
53.3504449322791
53.3504452676279
53.3504456470982
53.3504460671393
53.3504465238948
53.3504470133339
53.3504475314257
53.3504480741103
53.3504486374295
53.3504492175271
53.3504498107213
53.3504504134617
53.3504510224884
53.3504516346875
53.3504522472358
53.3504528574849
53.3504534631356
53.3504540620634
53.3504546524491
53.3504552327358
53.3504558016139
53.3504563580063
53.3504569011275
53.3504574303661
53.3504579453729
53.3504584459588
53.3504589321383
53.350459403955
53.3504598615982
53.3504603051115
53.3504607343348
53.3504611487006
53.350461546841
53.350461926384
53.3504622835317
53.3504626133654
53.3504629077506
53.3504631317774
53.3504632818076
53.3504633800185
53.3504614552949
53.3504614641715
53.3504614548729
53.3504614400736
53.350461468086
53.350461544338
53.3504616645223
53.3504618319857
53.3504620477033
53.3504623112822
53.3504626211943
53.3504629750823
53.3504633700068
53.3504638025624
53.3504642691114
53.3504647658847
53.3504652890115
53.3504658346501
53.350466399017
53.3504669784015
53.3504675692966
53.3504681682534
53.3504687721143
53.3504693778377
53.3504699827026
53.3504705840896
53.3504711797286
53.3504717675241
53.3504723456717
53.3504729125561
53.3504734668531
53.3504740074131
53.3504745333921
53.3504750441061
53.350475539075
53.3504760180076
53.3504764807731
53.350476927284
53.3504773575842
53.3504777715862
53.3504781690717
53.3504785494297
53.3504789114086
53.3504792528693
53.3504795705812
53.3504798605281
53.3504801155068
53.3504803064716
53.350480434121
53.3504805188713
53.3504788838618
53.350478904671
53.3504789160361
53.3504789314466
53.3504789941071
53.3504791044688
53.3504792575986
53.3504794557812
53.3504796994384
53.3504799878283
53.3504803193355
53.3504806916608
53.350481101952
53.3504815469787
53.3504820233356
53.3504825273849
53.3504830555175
53.3504836040665
53.3504841694084
53.3504847480217
53.3504853365012
53.3504859315581
53.3504865301074
53.3504871292243
53.3504877262167
53.3504883185669
53.350488904005
53.3504894804501
53.3504900461121
53.3504905993468
53.3504911388009
53.350491663281
53.3504921718559
53.3504926637397
53.3504931383795
53.3504935953679
53.3504940344283
53.3504944553861
53.3504948581249
53.3504952424701
53.3504956081742
53.3504959546262
53.3504962807638
53.3504965848115
53.3504968641209
53.3504971156217
53.3504973330855
53.3504974927491
53.3504975992255
53.3504976714612
53.3504963272135
53.350496359184
53.3504963900778
53.3504964343738
53.3504965301981
53.3504966734909
53.3504968585912
53.3504970868235
53.3504973579256
53.3504976708355
53.3504980237776
53.3504984144092
53.3504988400091
53.3504992974777
53.3504997835989
53.3505002949241
53.3505008280335
53.3505013794347
53.3505019457225
53.3505025234772
53.3505031094683
53.3505037005234
53.3505042936595
53.3505048860388
53.3505054750422
53.3505060582102
53.3505066332873
53.3505071982217
53.3505077512236
53.3505082906195
53.3505088150414
53.3505093232234
53.3505098141759
53.3505102870113
53.3505107411183
53.3505111759296
53.3505115910812
53.3505119862675
53.3505123612849
53.350512715886
53.3505130497651
53.3505133624276
53.3505136530293
53.350513920188
53.3505141619389
53.3505143761286
53.3505145574891
53.3505146871612
53.3505147734977
53.3505148338154
53.3505137814063
53.350513824189
53.3505138740002
53.3505139461777
53.350514074089
53.3505142493523
53.3505144656956
53.3505147234537
53.3505150216661
53.3505153588339
53.350515733051
53.3505161419016
53.3505165827373
53.3505170526187
53.3505175484752
53.3505180670472
53.3505186051189
53.3505191593576
53.3505197265185
53.350520303371
53.3505208868155
53.3505214737816
53.350522061417
53.3505226469861
53.3505232279131
53.3505238017678
53.3505243663822
53.3505249196896
53.3505254598858
53.3505259853118
53.3505264945416
53.3505269862653
53.3505274594208
53.3505279130768
53.3505283464619
53.3505287589214
53.3505291500041
53.3505295192736
53.3505298664386
53.3505301912082
53.3505304932769
53.3505307722226
53.3505310274923
53.3505312581547
53.3505314629438
53.3505316406518
53.3505317869276
53.3505318875832
53.3505319544347
53.3505320033437
53.3505312419584
53.3505312950001
53.3505313629867
53.3505314624344
53.3505316217779
53.3505318284297
53.3505320754775
53.3505323623831
53.3505326874292
53.3505330487096
53.3505334440706
53.350533871082
53.3505343271245
53.3505348093895
53.3505353149667
53.350535840771
53.3505363837758
53.3505369408231
53.3505375088425
53.3505380847637
53.3505386655888
53.3505392484512
53.350539830557
53.350540409243
53.3505409820064
53.3505415465042
53.3505421005684
53.3505426421762
53.3505431695085
53.3505436808628
53.3505441747984
53.3505446499912
53.350545105277
53.350545539608
53.3505459521693
53.3505463422043
53.3505467091163
53.3505470523814
53.3505473716214
53.3505476664868
53.3505479367159
53.3505481820321
53.3505484021007
53.3505485964997
53.3505487647199
53.3505489065283
53.3505490184034
53.3505490905955
53.3505491386022
53.3505491764372
53.3505487050279
53.350548768125
53.3505488540686
53.3505489804666
53.3505491708784
53.3505494086276
53.3505496861908
53.3505500020547
53.350550353789
53.3505507390801
53.3505511555268
53.3505516006408
53.3505520718754
53.350552566495
53.3505530817492
53.3505536147859
53.3505541626946
53.3505547225068
53.3505552913557
53.3505558663164
53.3505564445513
53.3505570232519
53.3505575997842
53.3505581715581
53.3505587361433
53.3505592912261
53.350559834711
53.3505603645608
53.3505608789856
53.3505613762536
53.3505618548807
53.3505623134843
53.3505627508421
53.3505631658481
53.350563557542
53.3505639250943
53.3505642677628
53.35056458498
53.3505648762657
53.350565141227
53.3505653796019
53.3505655912741
53.3505657762144
53.350565934481
53.3505660663068
53.3505661724193
53.3505662501993
53.3505662942334
53.3505663236137
53.3505663506949
53.3505661652016
53.3505662384559
53.3505663423857
53.3505664957775
53.3505667173304
53.3505669862207
53.3505672943429
53.3505676391651
53.3505680176022
53.3505684268748
53.3505688643927
53.3505693275947
53.3505698139634
53.350570320923
53.3505708458542
53.3505713860795
53.3505719388777
53.3505725014838
53.3505730711622
53.350573645148
53.3505742207635
53.3505747953022
53.3505753662612
53.3505759311229
53.3505764875445
53.3505770332558
53.3505775661615
53.3505780842825
53.3505785857997
53.3505790690106
53.350579532329
53.3505799743725
53.3505803938315
53.3505807895126
53.3505811603682
53.3505815054523
53.3505818239355
53.3505821151339
53.3505823784508
53.3505826134933
53.3505828200432
53.3505829980568
53.3505831478251
53.3505832699157
53.3505833652889
53.3505834356474
53.3505834792159
53.3505834950338
53.3505835056421
53.3505835214746
53.3505836187542
53.3505837025587
53.3505838249985
53.3505840057333
53.3505842587911
53.3505845591571
53.3505848980858
53.3505852720409
53.3505856772827
53.350586110595
53.3505865692132
53.3505870505178
53.350587552035
53.3505880713201
53.3505886059284
53.3505891533277
53.3505897109862
53.3505902763718
53.3505908468651
53.3505914198904
53.3505919928866
53.3505925633217
53.3505931287218
53.3505936867004
53.3505942349875
53.3505947713275
53.3505952937267
53.350595800177
53.3505962888594
53.3505967580568
53.3505972061685
53.3505976317247
53.3505980333575
53.350598409801
53.350598759891
53.3505990825652
53.3505993769359
53.3505996421591
53.3505998775654
53.3506000827183
53.3506002573995
53.3506004017108
53.3506005161908
53.3506006019161
53.3506006605749
53.3506006948155
53.3506007037649
53.3506006910466
53.3506006824173
53.3506006868993
53.3506010615238
53.3506011560821
53.3506012973812
53.3506015061139
53.3506017914915
53.3506021239882
53.350602494218
53.3506028976553
53.3506033299054
53.3506037874176
53.3506042671943
53.3506047666306
53.3506052832963
53.3506058149069
53.3506063591485
53.3506069137075
53.3506074762699
53.3506080444204
53.3506086157577
53.3506091878226
53.3506097582431
53.3506103245891
53.3506108844886
53.3506114356569
53.3506119758677
53.3506125029671
53.3506130149326
53.3506135097996
53.3506139857636
53.350614441064
53.3506148740853
53.3506152832852
53.3506156672374
53.3506160245743
53.3506163540587
53.3506166544976
53.3506169248722
53.3506171642366
53.3506173718342
53.3506175471266
53.3506176899391
53.3506178004463
53.3506178794487
53.3506179284741
53.3506179499091
53.3506179474061
53.3506179209799
53.3506178790121
53.3506178507087
53.3506178437092
53.3506184896833
53.3506185955775
53.3506187565799
53.3506189943291
53.3506193131616
53.3506196787348
53.3506200810079
53.3506205144658
53.3506209740881
53.3506214559893
53.3506219570409
53.3506224746379
53.3506230064813
53.3506235503883
53.3506241042633
53.3506246659817
53.3506252334046
53.3506258043199
53.3506263765012
53.3506269476638
53.3506275155378
53.3506280778383
53.35062863231
53.3506291767553
53.3506297089916
53.3506302269525
53.3506307286298
53.3506312120735
53.3506316754647
53.3506321170134
53.3506325351191
53.3506329281518
53.3506332946126
53.3506336330611
53.3506339421147
53.3506342205219
53.3506344670895
53.3506346807553
53.3506348606752
53.3506350062235
53.3506351171527
53.3506351937394
53.3506352369732
53.350635248833
53.3506352323602
53.3506351921387
53.3506351291726
53.3506350569369
53.350635008188
53.3506349891977
53.3506358983723
53.3506360164174
53.3506361980253
53.3506364662608
53.3506368201633
53.3506372201373
53.3506376554142
53.3506381195475
53.350638606993
53.3506391135597
53.3506396360317
53.3506401718623
53.3506407188688
53.3506412750576
53.3506418385514
53.3506424074003
53.3506429796835
53.3506435533782
53.350644126418
53.3506446967076
53.3506452621077
53.3506458204502
53.3506463695958
53.35064690742
53.3506474318419
53.3506479407952
53.3506484323443
53.3506489045394
53.3506493555615
53.3506497836352
53.3506501870288
53.3506505641417
53.3506509133731
53.3506512331805
53.3506515220943
53.3506517787173
53.3506520017254
53.3506521899544
53.3506523423712
53.3506524582626
53.3506525373377
53.350652579873
53.3506525870471
53.3506525611156
53.3506525057892
53.3506524266268
53.3506523255201
53.3506522215466
53.3506521514355
53.3506521195959
53.3506532836327
53.3506534151384
53.3506536188652
53.3506539194495
53.3506543104741
53.3506547464931
53.3506552159815
53.3506557116343
53.3506562273978
53.3506567589211
53.3506573029736
53.3506578570959
53.3506584192946
53.3506589877506
53.3506595608051
53.3506601367553
53.3506607138697
53.3506612903439
53.3506618642859
53.350662433746
53.3506629967305
53.3506635512022
53.3506640951528
53.3506646265014
53.3506651432399
53.3506656433892
53.3506661249994
53.3506665861787
53.3506670250936
53.3506674399105
53.3506678288977
53.3506681903964
53.3506685226894
53.3506688241905
53.3506690932845
53.3506693284435
53.3506695282267
53.3506696912809
53.350669816442
53.3506699028512
53.3506699500867
53.3506699584395
53.350669929132
53.3506698647107
53.3506697694247
53.3506696496916
53.3506695084361
53.3506693708623
53.3506692779629
53.3506692323281
53.3506706411135
53.3506707872002
53.3506710146612
53.3506713500683
53.3506717808341
53.3506722548918
53.3506727600179
53.3506732881215
53.3506738327997
53.3506743896287
53.3506749554217
53.3506755278941
53.3506761052413
53.3506766859355
53.3506772685214
53.3506778515293
53.3506784334604
53.3506790126994
53.3506795875583
53.3506801562326
53.3506807169033
53.3506812676351
53.3506818064925
53.3506823315402
53.3506828408135
53.3506833323627
53.3506838042958
53.3506842547213
53.3506846817763
53.3506850836711
53.3506854586012
53.3506858048204
53.3506861205824
53.3506864041265
53.3506866538082
53.3506868679106
53.3506870448473
53.3506871830905
53.3506872812868
53.3506873384322
53.35068735393
53.3506873279548
53.3506872617581
53.3506871580466
53.3506870214769
53.3506868592522
53.3506866752723
53.3506865016825
53.3506863842485
53.3506863234943
53.3506879667839
53.3506881290668
53.3506883825321
53.350688755876
53.35068922957
53.3506897440093
53.3506902864174
53.3506908480194
53.3506914222671
53.3506920047221
53.3506925924012
53.350693183238
53.3506937757193
53.3506943685643
53.3506949605944
53.3506955506164
53.3506961373205
53.3506967193098
53.3506972951145
53.3506978630758
53.3506984215055
53.3506989686139
53.3506995025673
53.3507000214886
53.3507005235006
53.3507010066969
53.3507014692004
53.3507019091776
53.3507023247512
53.3507027140586
53.3507030753099
53.3507034066424
53.3507037062809
53.3507039723481
53.3507042030542
53.350704396551
53.3507045511069
53.3507046649465
53.3507047365711
53.350704764729
53.35070474862
53.3507046882442
53.3507045847218
53.3507044408325
53.350704261451
53.3507040544791
53.3507038246025
53.3507036119263
53.3507034677023
53.3507033901988
53.3507052553759
53.3507054360671
53.3507057182287
53.3507061334967
53.3507066540478
53.3507072115754
53.3507077930262
53.3507083892619
53.3507089936902
53.3507096020912
53.3507102117728
53.3507108209742
53.3507114285021
53.3507120333961
53.3507126347831
53.3507132317172
53.3507138231653
53.3507144079194
53.3507149846846
53.350715551991
53.3507161082816
53.3507166518975
53.3507171810925
53.3507176940911
53.3507181890745
53.3507186642091
53.3507191176323
53.3507195474958
53.3507199519227
53.3507203290646
53.3507206770446
53.3507209939853
53.3507212779514
53.3507215270511
53.3507217393199
53.3507219127641
53.3507220454485