/*--------------------------------*- C++ -*----------------------------------*\
  =========                 |
  \\      /  F ield         | OpenFOAM: The Open Source CFD Toolbox
   \\    /   O peration     | Website:  https://openfoam.org
    \\  /    A nd           | Version:  10
     \\/     M anipulation  |
\*---------------------------------------------------------------------------*/
FoamFile
{
    format      ascii;
    class       surfaceScalarField;
    location    "1.4";
    object      phi;
}
// * * * * * * * * * * * * * * * * * * * * * * * * * * * * * * * * * * * * * //

dimensions      [1 0 -1 0 0 0 0];

internalField   nonuniform List<scalar> 
4900
(
-5.00434321851967e-12
5.37087411836053e-12
-7.42266450739056e-12
2.98327328696451e-12
-4.94312368459264e-12
-1.87870358520178e-12
-3.45165709843916e-12
-9.07522193185296e-13
-2.46932680372806e-12
-4.11745380106676e-13
-1.753403302158e-12
-1.49520554908506e-13
-1.2001583052801e-12
1.24078952245239e-14
-7.42933409958766e-13
1.070553654965e-13
-3.53315249641874e-13
1.71219690780517e-13
-1.66082506889626e-14
2.18470982131222e-13
2.76193368973012e-13
2.54962457605757e-13
5.31336226825851e-13
2.83903910786196e-13
7.538901578003e-13
3.06978762886627e-13
9.47673941771484e-13
3.25696578153583e-13
1.11582824493903e-12
3.41054543335366e-13
1.26105701430119e-12
3.53565933628793e-13
1.38569524096623e-12
3.63812621061566e-13
1.4917234950185e-12
3.72132417348327e-13
1.58099344311888e-12
3.78825214697613e-13
1.65512680049484e-12
3.84061979486886e-13
1.71573397551173e-12
3.88008897349489e-13
1.76420432820034e-12
3.90805316886693e-13
1.80198456741384e-12
3.92538758814228e-13
1.8303629596641e-12
3.93270000635403e-13
1.85073227450104e-12
3.93028586704734e-13
1.86434277284497e-12
3.91846810172361e-13
1.87252314583531e-12
3.89770079257804e-13
1.87660047770519e-12
3.86683716276336e-13
1.8779503998084e-12
3.82653071633844e-13
1.87787603290985e-12
3.77633986184966e-13
1.87786578802444e-12
3.71551986685325e-13
1.87948118676372e-12
3.64224670684394e-13
1.88442661860655e-12
3.55618849814991e-13
1.89453606143592e-12
3.4550544592649e-13
1.91201548785278e-12
3.33616299393428e-13
1.93929851388413e-12
3.1962313614178e-13
1.97933517653247e-12
3.03082764524625e-13
2.03556587917225e-12
2.83364431229701e-13
2.11225192741502e-12
2.59629043345317e-13
2.21471918286781e-12
2.30546969732887e-13
2.35002120823864e-12
1.9418826899473e-13
2.52815664721678e-12
1.47171242054964e-13
2.76557394361268e-12
8.28116899032839e-14
3.09397192110847e-12
-1.41237394908505e-14
3.58452400883255e-12
-1.81997258660698e-13
4.34082398342472e-12
-4.50930921728329e-13
5.57824281243598e-12
-9.30072835972205e-13
7.83805875347206e-12
-1.94516552652057e-12
5.21572451074388e-12
2.93671981029963e-12
5.43464601805291e-12
-7.94504293473814e-12
1.38253856770281e-11
-9.40932494901438e-12
5.17478196752073e-12
-7.70617119054366e-12
-2.84928228664355e-12
-6.32480075439172e-12
-1.58708711272964e-12
-5.04674195376216e-12
-1.00590771948079e-12
-3.93887625505126e-12
-5.79092055539161e-13
-2.99855334263816e-12
-2.51150119676314e-13
-2.20099465171418e-12
-1.60367456600274e-14
-1.51884077559504e-12
1.5884424925155e-13
-9.30820446126773e-13
2.93022356226888e-13
-4.20985473264249e-13
3.98510910440373e-13
2.26088773929325e-14
4.83045721911334e-13
4.09431947203821e-13
5.51352324711267e-13
7.46877963998046e-13
6.07316470917994e-13
1.04101936349784e-12
6.53610382777566e-13
1.29689764911457e-12
6.91875854447487e-13
1.51889219633316e-12
7.23588502908599e-13
1.71070724915708e-12
7.49756790625859e-13
1.87572673135784e-12
7.71183969628254e-13
2.01691555894175e-12
7.88408200644461e-13
2.13712633298795e-12
8.01870787916927e-13
2.23888796970221e-12
8.11957998092393e-13
2.32471224560841e-12
8.18924510723156e-13
2.39688842971486e-12
8.22957688802729e-13
2.45781853775861e-12
8.2411142820044e-13
2.50971928826958e-12
8.22493497037697e-13
2.55491808120211e-12
8.18163843151928e-13
2.59564992764361e-12
8.10981384287109e-13
2.63431667182781e-12
8.00959553338572e-13
2.67327512158392e-12
7.87981888690379e-13
2.71517295948753e-12
7.71794666861716e-13
2.76274814388095e-12
7.52015425212198e-13
2.81908787374154e-12
7.2837406261593e-13
2.8875582689112e-12
7.00262504336586e-13
2.97211135337715e-12
6.66931267030938e-13
3.07720866274393e-12
6.27437654370138e-13
3.20828268886655e-12
5.80431473150835e-13
3.37168981434315e-12
5.24195739566973e-13
3.57533011668113e-12
4.5629351547421e-13
3.82911597608166e-12
3.730576131857e-13
4.14590042991252e-12
2.69334692583366e-13
4.54270027360527e-12
1.37061870166541e-13
5.04288759290158e-12
-3.70394645887156e-14
5.67779951403668e-12
-2.75930455368085e-13
6.47853243667053e-12
-6.15980634535857e-13
7.44866475149331e-12
-1.05643579051701e-12
8.50677675953132e-12
-1.61799533310781e-12
1.00041976977499e-11
-3.06032403807817e-12
8.27210720393322e-12
5.05089659949729e-12
1.39571689958605e-11
-1.03072342878608e-11
2.46695404503656e-11
-8.52033417026256e-12
4.11727006557642e-12
-7.65323685078397e-12
-3.03514577246117e-12
-6.66431376531903e-12
-1.93842968029897e-12
-5.44907207406927e-12
-1.60367442046755e-12
-4.38011157668608e-12
-1.03683429231606e-12
-3.47307641561994e-12
-5.48954743122536e-13
-2.70737066009167e-12
-1.75033249427953e-13
-2.05526563761877e-12
1.0885951598726e-13
-1.49522868825811e-12
3.28313096514079e-13
-1.01098874075313e-12
5.01072363284952e-13
-5.90263261538984e-13
6.39315837755971e-13
-2.23576862422664e-13
7.51077422280917e-13
9.65967398618112e-14
8.42453437835546e-13
3.76462610144607e-13
9.17752517578105e-13
6.21059335227714e-13
9.79866999123331e-13
8.34765301037718e-13
1.03114079922776e-12
1.02127672289742e-12
1.07325935614673e-12
1.18395193453487e-12
1.10752866193855e-12
1.32570981503484e-12
1.13487974194922e-12
1.44930308277749e-12
1.1560671575668e-12
1.55720818649091e-12
1.17168327456273e-12
1.65185076906979e-12
1.18216954737891e-12
1.73541831765048e-12
1.18786415543078e-12
1.81017867505233e-12
1.18886449564242e-12
1.87829062269e-12
1.18528837619605e-12
1.94194038803936e-12
1.17727963161291e-12
2.00321150410528e-12
1.16469313865208e-12
2.06442479641458e-12
1.14740930699551e-12
2.12786112379693e-12
1.12524543913053e-12
2.19607828257163e-12
1.09777164383858e-12
2.27169842646566e-12
1.06444336858006e-12
2.35773480213637e-12
1.02469984057429e-12
2.45748210007799e-12
9.77562590207747e-13
2.57479382124676e-12
9.21817235225186e-13
2.71407276472795e-12
8.55875878924755e-13
2.88066491897721e-12
7.77500608746925e-13
3.08085335803446e-12
6.83886971726934e-13
3.32246853675492e-12
5.70993462652485e-13
3.61535222926035e-12
4.328368392856e-13
3.97224295165238e-12
2.61094754111438e-13
4.40987742251986e-12
4.32261532383832e-14
4.95087399423095e-12
-2.40133447135566e-13
5.6245980294208e-12
-6.18373368469418e-13
6.45363510801113e-12
-1.11916813386763e-12
7.42152015873527e-12
-1.69887996712792e-12
8.17668275990053e-12
-2.03842021214589e-12
8.89419939314924e-12
-3.42339517877968e-12
1.04460796079393e-11
3.87009693694434e-12
2.46434051902656e-11
-8.97030362949637e-12
3.4179611372203e-11
-8.25545135119797e-12
4.11634392854648e-12
-7.41249868969122e-12
-3.24526429514091e-12
-6.29810724250566e-12
-2.46981664823109e-12
-5.11718608935746e-12
-2.22272927899844e-12
-4.13436828976255e-12
-1.46437751012575e-12
-3.32547586508757e-12
-8.04832400055703e-13
-2.64961983572219e-12
-3.00490199272824e-13
-2.07579040628863e-12
8.10022732165783e-14
-1.58322921898178e-12
3.75337595107175e-13
-1.15725140414774e-12
6.06748681436321e-13
-7.86952522601336e-13
7.9159258652042e-13
-4.63950860528905e-13
9.40876810465994e-13
-1.81572642196944e-13
1.06263594223099e-12
6.57113923899714e-14
1.1626103503153e-12
2.82400338662839e-13
1.24479477845296e-12
4.72416846785138e-13
1.3123026619405e-12
6.39074998153849e-13
1.36741980588971e-12
7.8539271386486e-13
1.41190281371532e-12
9.13971263527421e-13
1.44705300827956e-12
1.02727666255354e-12
1.47389903841443e-12
1.12751468930282e-12
1.49322610494503e-12
1.21684337587139e-12
1.50565068371171e-12
1.29724314298255e-12
1.51160601216916e-12
1.37072092588738e-12
1.51127947272007e-12
1.43912814002476e-12
1.50485004955405e-12
1.50442687892239e-12
1.4924561816169e-12
1.56849193661614e-12
1.47393984748854e-12
1.63335407229884e-12
1.44912274887678e-12
1.7010551723895e-12
1.41771231901782e-12
1.77385871961723e-12
1.37915148987449e-12
1.85409092348743e-12
1.3327413575244e-12
1.94444646904799e-12
1.27764741374009e-12
2.04784735800818e-12
1.21258085848222e-12
2.16772328844051e-12
1.1359067434929e-12
2.30798227499099e-12
1.04547025802958e-12
2.47334431318146e-12
9.38273083262531e-13
2.66933842205641e-12
8.10561705166744e-13
2.9028312383436e-12
6.56904196954441e-13
3.18240413913512e-12
4.69318127883447e-13
3.51913206821892e-12
2.36732358597986e-13
3.92768480782651e-12
-5.74420788045221e-14
4.42862541448424e-12
-4.38660210009554e-13
5.05181754215251e-12
-9.45292708844907e-13
5.83589084836681e-12
-1.61183918681868e-12
6.80792545659269e-12
-2.37899058508418e-12
7.75895854970383e-12
-2.6860013832842e-12
8.53836998465172e-12
-3.8745923107161e-12
9.07920133645433e-12
3.68608368450184e-12
3.39536246665006e-11
-6.0403031872627e-12
4.07458272734093e-11
-7.86346852408501e-12
6.62477655707992e-12
-7.11011216030525e-12
-3.41090787083365e-12
-5.88768057663442e-12
-3.15586272447406e-12
-4.78426865345159e-12
-2.81064948837355e-12
-3.8897656905763e-12
-1.85007225583594e-12
-3.16007636792533e-12
-1.02820086483012e-12
-2.54908783817045e-12
-4.07893877846996e-13
-2.02819592622901e-12
5.93390378715441e-14
-1.57923998073582e-12
4.19476810153738e-13
-1.18961219933764e-12
7.02676974897442e-13
-8.49941952033716e-13
9.28888908618452e-13
-5.52931749691571e-13
1.11160834574625e-12
-2.9271621944642e-13
1.2605081721654e-12
-6.43578478790068e-14
1.38252514883572e-12
1.36193418410398e-13
1.4826046200805e-12
3.12507781454647e-13
1.56452253346331e-12
4.67613551753046e-13
1.63109569508213e-12
6.04290340842577e-13
1.68447700701925e-12
7.24933254463883e-13
1.72630654833842e-12
8.31835224030148e-13
1.7578475193909e-12
9.27024577621836e-13
1.78008430760871e-12
1.01250667327762e-12
1.79377824626578e-12
1.09012629905748e-12
1.79944334345328e-12
1.16173000470229e-12
1.79737699637787e-12
1.22902380158686e-12
1.7878075167288e-12
1.2938459678185e-12
1.77084234902601e-12
1.35792306177368e-12
1.74633876304864e-12
1.42313522848382e-12
1.71405924503751e-12
1.49137098760626e-12
1.6736068511756e-12
1.56471872166453e-12
1.62431658816579e-12
1.64532573323526e-12
1.56534242029539e-12
1.73567453688208e-12
1.49560583449181e-12
1.8384348429486e-12
1.41355129118953e-12
1.95674200287579e-12
1.31716260465161e-12
2.09412284296256e-12
1.20380858757269e-12
2.25481578843385e-12
1.06983025715292e-12
2.44372743693021e-12
9.10673328461499e-13
2.66687349835221e-12
7.1974943064486e-13
2.9316301086453e-12
4.87447647264302e-13
3.24737365693477e-12
2.00456014037528e-13
3.62635025680303e-12
-1.61119422412248e-13
4.08575429927797e-12
-6.27883725904419e-13
4.65161526839721e-12
-1.24675410406071e-12
5.36643643804494e-12
-2.06678958480093e-12
6.28150939819724e-12
-3.03315582068878e-12
7.37702148346355e-12
-3.50794028581003e-12
8.1351070070165e-12
-4.33222609225846e-12
6.15750203117135e-12
5.9980726322554e-12
4.03258260497423e-11
-4.12253696111324e-12
4.5376248471553e-11
-6.91786014640316e-12
1.00769079300973e-11
-6.42786856025558e-12
-3.34699254206765e-12
-5.39543983698796e-12
-3.68561431388033e-12
-4.4605846563445e-12
-3.26352124110593e-12
-3.67633506213556e-12
-2.15908666039112e-12
-3.02186793842396e-12
-1.21011468072681e-12
-2.46475129866869e-12
-4.95321385404701e-13
-1.98431080600629e-12
4.42472000748372e-14
-1.56679787323647e-12
4.61333599054686e-13
-1.20224080653096e-12
7.90211761178854e-13
-8.82963313341862e-13
1.05344669888309e-12
-6.02770182979909e-13
1.26640248518702e-12
-3.5656050260451e-13
1.44003324083657e-12
-1.39941096485943e-13
1.58223911708582e-12
5.07539115892422e-14
1.69874790447723e-12
2.18802958338578e-13
1.79389957481178e-12
3.67013079555487e-13
1.87096939577245e-12
4.97982048389541e-13
1.9324630498552e-12
6.13967268675954e-13
1.98031456328388e-12
7.17135211699485e-13
2.01600794395862e-12
8.09404479755857e-13
2.04071018972205e-12
8.92686568160842e-13
2.05530935928679e-12
9.68729317540323e-13
2.06040385243836e-12
1.03928771687831e-12
2.05639390432097e-12
1.10599018556963e-12
2.04354412732824e-12
1.17058422544977e-12
2.02194332097555e-12
1.23471206862771e-12
1.99145864437827e-12
1.30016563446871e-12
1.95179571768969e-12
1.3687287813818e-12
1.90247237835776e-12
1.44238469244219e-12
1.84271379884831e-12
1.52315311288153e-12
1.77155136415796e-12
1.61336230617048e-12
1.68768786954366e-12
1.71551403311796e-12
1.58931595533598e-12
1.83250828752081e-12
1.47410477548137e-12
1.96757138006853e-12
1.3390139937141e-12
2.1245323366567e-12
1.17983292191218e-12
2.30774456850204e-12
9.91356173358841e-13
2.52244004053141e-12
7.66074363972636e-13
2.77482210952894e-12
4.93150522733052e-13
3.07249298937707e-12
1.57645788436177e-13
3.42490653064442e-12
-2.62606885818903e-13
3.84463028120362e-12
-8.01534675733336e-13
4.34971239774181e-12
-1.51128766792002e-12
4.96987581157443e-12
-2.45074297071103e-12
5.73575584586976e-12
-3.5616077136702e-12
6.65981292103648e-12
-4.1814324877826e-12
7.17988683071857e-12
-4.57403998921718e-12
4.22154506840377e-12
9.27037487955806e-12
4.4749748480177e-11
-3.01383611963408e-12
4.88736639132356e-11
-5.75159731423053e-12
1.34363905294409e-11
-5.55646445291065e-12
-3.02430853782673e-12
-4.83557701584414e-12
-3.93808654706613e-12
-4.10206090705279e-12
-3.5483539081374e-12
-3.43918312269386e-12
-2.37995145229021e-12
-2.86132151908015e-12
-1.34883723861533e-12
-2.3560786982638e-12
-5.64454549327706e-13
-1.91277071167965e-12
3.26636962478394e-14
-1.52296293927129e-12
4.97349042276283e-13
-1.17973452227999e-12
8.65700822054411e-13
-8.77288570834008e-13
1.16169777951563e-12
-6.10636499849241e-13
1.40187554972775e-12
-3.75480932482967e-13
1.59805076834103e-12
-1.67997124591057e-13
1.75883933929818e-12
1.5090246527058e-14
1.8905677949541e-12
1.76770408614982e-13
1.99803327745251e-12
3.19638206566873e-13
2.08488965835486e-12
4.46121864022584e-13
2.15395053266431e-12
5.58352554623853e-13
2.20739963618726e-12
6.58385273857162e-13
2.24692486757551e-12
7.4805394536e-13
2.27384862392754e-12
8.29192247771685e-13
2.28917759269368e-12
9.03463637091931e-13
2.29360143868198e-12
9.72561148945099e-13
2.28759910157281e-12
1.03805478402345e-12
2.2714692328144e-12
1.10161799078738e-12
2.24529614223244e-12
1.16483138551525e-12
2.20894569648672e-12
1.2294159320021e-12
2.16207522799819e-12
1.29706791239365e-12
2.10413471358693e-12
1.36969229693374e-12
2.03422998768661e-12
1.44919702853205e-12
1.95130428914995e-12
1.53777795983652e-12
1.85386132472813e-12
1.63777919312081e-12
1.73986876394832e-12
1.75187644445422e-12
1.60674678314657e-12
1.88301571843351e-12
1.45110381251668e-12
2.03461826176541e-12
1.26830612856631e-12
2.21048518618213e-12
1.05264522850638e-12
2.41503235036864e-12
7.9596042362152e-13
2.65323574138776e-12
4.86610487428219e-13
2.93081785071311e-12
1.08694489014711e-13
3.25419315229114e-12
-3.61055653371258e-13
3.63077353850069e-12
-9.57778997754883e-13
4.06931617422941e-12
-1.73476273093176e-12
4.5812127672504e-12
-2.75174142909531e-12
5.16264292828258e-12
-3.93083910991402e-12
5.78192584340619e-12
-4.57548191879426e-12
5.99731094990492e-12
-4.53718200522479e-12
3.09459670946074e-12
1.24602650768844e-11
4.8027588423746e-11
-2.32348689810106e-12
5.16580912701819e-11
-4.67278543104617e-12
1.63768564750384e-11
-4.71168256006972e-12
-2.49476625305412e-12
-4.26741274947186e-12
-3.93927420001723e-12
-3.71986938982889e-12
-3.67197461036401e-12
-3.17484101478108e-12
-2.50768674223615e-12
-2.67261300822094e-12
-1.43681417924323e-12
-2.21865929824626e-12
-6.07343440134464e-13
-1.81176581972537e-12
3.23904675132237e-14
-1.44878230535044e-12
5.35127103970286e-13
-1.12591122682183e-12
9.36608240326152e-13
-8.39312561344332e-13
1.26103282456808e-12
-5.85252514913421e-13
1.52538571503303e-12
-3.60284050380262e-13
1.74192605387178e-12
-1.61176939441876e-13
1.91972135460223e-12
1.49340343460996e-14
2.06550612421278e-12
1.70739058517408e-13
2.18442012260174e-12
3.08606706814401e-13
2.28042101758689e-12
4.30800731722972e-13
2.35656666042436e-12
5.39321026026481e-13
2.41525693658183e-12
6.36117147592346e-13
2.45835621427211e-12
7.22928187520401e-13
2.48733223625562e-12
8.01522051187089e-13
2.50327969750619e-12
8.73489528053921e-13
2.5069872111512e-12
9.40461003398088e-13
2.49900116360091e-12
1.0039499819093e-12
2.47964913218063e-12
1.06556742420116e-12
2.44901578031425e-12
1.12683631963914e-12
2.4069620077137e-12
1.18941100956903e-12
2.35310546944387e-12
1.25491483751751e-12
2.2868351816649e-12
1.32516063024371e-12
2.20715638023706e-12
1.40195708803966e-12
2.11293194326548e-12
1.4873746297432e-12
2.00249254958101e-12
1.58359163570631e-12
1.8736216983371e-12
1.69306490224547e-12
1.72354336481046e-12
1.81844673281428e-12
1.5485914756696e-12
1.96274598860451e-12
1.34382754434034e-12
2.12918982384793e-12
1.10320677318445e-12
2.32136100907847e-12
8.1817956233517e-13
2.54298224678111e-12
4.7673099715534e-13
2.79787008513828e-12
6.26616531926338e-14
3.08943455042393e-12
-4.47286529908023e-13
3.42012678927722e-12
-1.08751156091688e-12
3.79010625975524e-12
-1.90883721082067e-12
4.19444035910002e-12
-2.96421952423386e-12
4.60280511224985e-12
-4.14616409574307e-12
4.94611887016281e-12
-4.71313038572277e-12
4.90074630527004e-12
-4.2600660729877e-12
2.39461133228251e-12
1.52312434240803e-11
5.05922396528805e-11
-1.85161732490442e-12
5.39438036983073e-11
-3.78085953677127e-12
1.8860901758707e-11
-3.97424330022226e-12
-1.84335450424028e-12
-3.73089089713628e-12
-3.76929292809752e-12
-3.3359841774518e-12
-3.67146362142858e-12
-2.89663879537187e-12
-2.55806816962092e-12
-2.46595247768209e-12
-1.48173043376645e-12
-2.06200091880815e-12
-6.28875546125674e-13
-1.69120252447829e-12
3.94918355775597e-14
-1.35504184674222e-12
5.71031246229914e-13
-1.05261630725397e-12
9.99367046793542e-13
-7.81963795323078e-13
1.34787655316369e-12
-5.40587230835211e-13
1.633333424375e-12
-3.25897995940529e-13
1.86804654194321e-12
-1.3526435392161e-13
2.06126582755944e-12
3.37574048621765e-14
2.21995049868988e-12
1.83547044761923e-13
2.34946839628419e-12
3.1624401300622e-13
2.45399744129415e-12
4.33935410893287e-13
2.53678548694115e-12
5.38481773874854e-13
2.60041009146608e-12
6.31727801172551e-13
2.64687678759934e-12
7.15319350986191e-13
2.6777863629364e-12
7.90948535884915e-13
2.69430335322471e-12
8.60134653842178e-13
2.69731103829022e-12
9.24443524471625e-13
2.68741562956585e-12
9.85334176571446e-13
2.66496395907495e-12
1.04435262583036e-12
2.63005086836409e-12
1.10296363974048e-12
2.58252672410015e-12
1.16275445985974e-12
2.52197696004566e-12
1.2252771780752e-12
2.44773530873169e-12
1.29223445812327e-12
2.35874450556424e-12
1.36535399131901e-12
2.2537593356796e-12
1.44656950667788e-12
2.1309918515128e-12
1.53788069495634e-12
1.98808503875066e-12
1.6415285223325e-12
1.82210311699413e-12
1.75986412670136e-12
1.62919219498635e-12
1.89547979490265e-12
1.40422598077431e-12
2.05102867131562e-12
1.14098354124194e-12
2.22926260400388e-12
8.3078877674524e-13
2.43268892270004e-12
4.61646484846537e-13
2.66332681003503e-12
1.76519495222777e-14
2.92184011406019e-12
-5.23480755684815e-13
3.20639459275413e-12
-1.19386988400177e-12
3.51024406724536e-12
-2.03929100702637e-12
3.81683987370915e-12
-3.10131905154812e-12
4.08176352294103e-12
-4.24051252595014e-12
4.2227660099811e-12
-4.67170280952215e-12
3.99417294638142e-12
-3.82491495053884e-12
1.91955224174545e-12
1.75427973947892e-11
5.26619771064069e-11
-1.50621654002909e-12
5.58608077251768e-11
-3.07217222564648e-12
2.09515524884196e-11
-3.35183680659503e-12
-1.12998728556577e-12
-3.24278380012285e-12
-3.48703624888711e-12
-2.96570991968033e-12
-3.57445816651653e-12
-2.61639112812433e-12
-2.53965580700579e-12
-2.25083366405137e-12
-1.48287321009762e-12
-1.89439693247443e-12
-6.24382061644733e-13
-1.55890058066397e-12
6.03474287697662e-14
-1.24950729683835e-12
6.12183173141412e-13
-9.67784710832927e-13
1.06140771891108e-12
-7.13454065853787e-13
1.42976721386984e-12
-4.85175977519107e-13
1.73327926032625e-12
-2.81183887610097e-13
1.98395459789426e-12
-9.9425303886348e-14
2.19097346290717e-12
6.21209347277671e-14
2.36135898456667e-12
2.05522277429732e-13
2.50059251570112e-12
3.32687122244538e-13
2.61299012469037e-12
4.45518588810523e-13
2.70194022529294e-12
5.45740347064835e-13
2.77015161350991e-12
6.35078802891417e-13
2.81975051903263e-12
7.15090612893956e-13
2.85244234477805e-12
7.87376799615682e-13
2.86946229420511e-12
8.53387788155564e-13
2.87176690561819e-12
9.14624132651654e-13
2.86001717096999e-12
9.72483497609632e-13
2.83457679250821e-12
1.02844483383997e-12
2.79555536103635e-12
1.08390795705735e-12
2.7427915162905e-12
1.14038760867714e-12
2.67584553804995e-12
1.19936442635038e-12
2.59399587982018e-12
1.26244428967588e-12
2.49614721852115e-12
1.33124365032146e-12
2.38096169548636e-12
1.40756256678273e-12
2.24655460103068e-12
1.49322448481288e-12
2.09047178968334e-12
1.59024849555471e-12
1.90966280888132e-12
1.70068448106895e-12
1.70016728237368e-12
1.8267140688692e-12
1.45678041626594e-12
1.97043654691573e-12
1.1732523375057e-12
2.13381323845644e-12
8.41021013390938e-13
2.31823310901058e-12
4.48448769286957e-13
2.52411067359364e-12
-1.95777949002237e-14
2.74978143802172e-12
-5.83634918877723e-13
2.99003158926356e-12
-1.27250900881305e-12
3.23319648277706e-12
-2.12541907342339e-12
3.45589578188528e-12
-3.17075828078602e-12
3.60934637525079e-12
-4.23988446080561e-12
3.61443462037897e-12
-4.51172262829034e-12
3.27548719791994e-12
-3.29837665094789e-12
1.57414234985617e-12
1.94593203140154e-11
5.43737791506344e-11
-1.2417063392189e-12
5.74863691462299e-11
-2.51364898072743e-12
2.27124113871965e-11
-2.83008136381719e-12
-4.10794062554301e-13
-2.80675375771016e-12
-3.14687108503461e-12
-2.6172432644113e-12
-3.41636757139564e-12
-2.34193894168687e-12
-2.47346759467199e-12
-2.03386343000115e-12
-1.45286849845064e-12
-1.72142926419047e-12
-6.02342739305207e-13
-1.41976941051481e-12
8.85335857976222e-14
-1.13669314003838e-12
6.53183784457666e-13
-8.75723832177942e-13
1.11784260990988e-12
-6.38007967246068e-13
1.50207316029263e-12
-4.23234208574258e-13
1.82072196859789e-12
-2.30386353299472e-13
2.08521057825695e-12
-5.79522023521039e-14
2.30443089467711e-12
9.56802891604243e-14
2.48533294107395e-12
2.32275573083702e-13
2.6334020952072e-12
3.53512098953113e-13
2.75301719495797e-12
4.61107371694759e-13
2.84766121576127e-12
5.56643252822748e-13
2.92012952268235e-12
6.41726477960027e-13
2.97264548983599e-12
7.17818209892041e-13
3.00699546050097e-12
7.86427612623792e-13
3.02447993503412e-12
8.48931178812998e-13
3.02611156605131e-12
9.06758920455578e-13
3.01260189759529e-12
9.61242224311509e-13
2.98432736634609e-12
1.01378967848264e-12
2.94141634875777e-12
1.06573318015275e-12
2.88369383613943e-12
1.11851507180959e-12
2.81069883484976e-12
1.17353018855963e-12
2.72166898145003e-12
1.23229379962285e-12
2.61547480048683e-12
1.29630349035146e-12
2.49071510666802e-12
1.36722498635127e-12
2.34542289868074e-12
1.44670867113141e-12
2.17708742527181e-12
1.53655070975249e-12
1.98259225845824e-12
1.63850402541701e-12
1.7579463601193e-12
1.75435664811534e-12
1.49796365407207e-12
1.8857002436132e-12
1.19648364380744e-12
2.03377206160517e-12
8.45279011509518e-13
2.19896976976061e-12
4.3334596963116e-13
2.38036042914319e-12
-5.3269960280858e-14
2.57445905400729e-12
-6.32948361154666e-13
2.77360336351561e-12
-1.33051302561443e-12
2.96309041360392e-12
-2.17806855816665e-12
3.11655088066796e-12
-3.19100123125665e-12
3.18675858138956e-12
-4.176247373037e-12
3.10474900764019e-12
-4.28597068415071e-12
2.710866178107e-12
-2.74067454585784e-12
1.31021958384106e-12
2.10482972916467e-11
5.58024894565977e-11
-1.03299008050938e-12
5.88808446636723e-11
-2.07121134962028e-12
2.42111502903018e-11
-2.39127210862579e-12
2.89771149245687e-13
-2.42009482198727e-12
-2.77451085118031e-12
-2.29392601445744e-12
-3.21421334050372e-12
-2.07795413733037e-12
-2.36708513739932e-12
-1.81938534080014e-12
-1.39256639782453e-12
-1.54680286730691e-12
-5.59747655772891e-13
-1.2769474266213e-12
1.29206402457603e-13
-1.01931321777842e-12
7.00364471384277e-13
-7.78856337650987e-13
1.17564725842367e-12
-5.57857515591073e-13
1.57211698584019e-12
-3.56867269610156e-13
1.90315925652171e-12
-1.7552290689069e-13
2.17938591664917e-12
-1.2809903132641e-14
2.40923653268571e-12
1.32508854439077e-13
2.59946095594587e-12
2.61908099287241e-13
2.75545916366091e-12
3.76838790523184e-13
2.88161003647941e-12
4.78841796301105e-13
2.98143764968682e-12
5.69350476979493e-13
3.05779617209066e-12
6.49855441202253e-13
3.11297290079489e-12
7.21714801585661e-13
3.14882184716125e-12
7.86347410953898e-13
3.16669548516999e-12
8.45048523032794e-13
3.16765390791486e-12
8.99177515407048e-13
3.15244784294394e-12
9.49989215253055e-13
3.121473979441e-12
9.98826986369161e-13
3.07486617217232e-12
1.04694578355127e-12
3.01244954671599e-12
1.09571109686871e-12
2.93374047187862e-12
1.1464334162453e-12
2.83794442099622e-12
1.20052669940182e-12
2.72391374085729e-12
1.25937467305157e-12
2.59019801099632e-12
1.32450926585704e-12
2.43476629520461e-12
1.39740811637455e-12
2.2550913848538e-12
1.47965228810048e-12
2.04803263305883e-12
1.57271763118837e-12
1.80963198119953e-12
1.67802011024354e-12
1.53481717924123e-12
1.79669540465777e-12
1.21760517882735e-12
1.92935435867159e-12
8.50276892405012e-13
2.07555921838102e-12
4.22681727208494e-13
2.2333099611301e-12
-7.77339165806303e-14
2.39779076727664e-12
-6.66874330863561e-13
2.5597819625285e-12
-1.36537055638119e-12
2.70309941045255e-12
-2.19831756404148e-12
2.80105868152453e-12
-3.16938263542232e-12
2.81101669058452e-12
-4.06632139572851e-12
2.67570910033728e-12
-4.02192442748212e-12
2.26508339888425e-12
-2.18299215828549e-12
1.10157408424807e-12
2.23805279899279e-11
5.70116119347739e-11
-8.63584800834704e-13
6.00800573098632e-11
-1.71565468868422e-12
2.54895141418153e-11
-2.01961248158953e-12
9.44801405110682e-13
-2.07783344038107e-12
-2.3990960177534e-12
-1.99627348261702e-12
-2.99245568553671e-12
-1.82689127868574e-12
-2.23884839525228e-12
-1.61014131052089e-12
-1.31522636953361e-12
-1.37301071396061e-12
-5.06551940902863e-13
-1.13255649263111e-12
1.74424223270477e-13
-8.99151985240235e-13
7.46992835179804e-13
-6.78698468166911e-13
1.22881348122974e-12
-4.74310595781192e-13
1.63431676327972e-12
-2.87228558075328e-13
1.97526695286648e-12
-1.17637017886408e-13
2.26131191826967e-12
3.50426060905437e-14
2.50031827928583e-12
1.71709909011007e-13
2.69873246502961e-12
2.93568415091222e-13
2.86179881094883e-12
4.01856110986564e-13
2.99383600507284e-12
4.97941523526254e-13
3.09836679308557e-12
5.83113511413728e-13
3.17827595953031e-12
6.58743849568094e-13
3.23588680232037e-12
7.26086794776527e-13
3.27310694761558e-12
7.86468808131953e-13
3.29132802968866e-12
8.41101079788897e-13
3.29164993168626e-12
8.91268389927267e-13
3.27485179567777e-12
9.38149655858774e-13
3.24135284813248e-12
9.83012115305183e-13
3.19129174902691e-12
1.02703710022851e-12
3.12449245360642e-12
1.07150877142798e-12
3.04045524889397e-12
1.11765382663576e-12
2.93835720855019e-12
1.16677727361953e-12
2.81705689038984e-12
1.22015485232845e-12
2.67505407630922e-12
1.27918495721992e-12
2.51027922912299e-12
1.34517751282658e-12
2.32022332217314e-12
1.41951136160377e-12
2.10175554851368e-12
1.50340178000002e-12
1.85101079704284e-12
1.59793390366862e-12
1.56310150624806e-12
1.70385290707035e-12
1.23228553187991e-12
1.82124359798378e-12
8.51491663261995e-13
1.94899522586957e-12
4.11579240553146e-13
2.0843302398854e-12
-9.84895229042455e-14
2.22155652269974e-12
-6.920296636061e-13
2.35064997142103e-12
-1.38554786447275e-12
2.45512506592946e-12
-2.19766104971697e-12
2.50964464851945e-12
-3.12209650829012e-12
2.47735187837964e-12
-3.93212482626242e-12
2.31194501791029e-12
-3.74693521064843e-12
1.90888789854644e-12
-1.65458350438887e-12
9.332841054139e-13
2.35002044753454e-11
5.803463651396e-11
-7.23368328043125e-13
6.11182455854186e-11
-1.4255100769415e-12
2.65916442868046e-11
-1.70210409223744e-12
1.55205971719325e-12
-1.77424520066657e-12
-2.02801920123316e-12
-1.72317289359978e-12
-2.75785432942306e-12
-1.58973077638588e-12
-2.09216997904874e-12
-1.4077600056955e-12
-1.2206383994372e-12
-1.20171621449917e-12
-4.3984073973856e-13
-9.88081507377056e-13
2.28911603175418e-13
-7.7746881624877e-13
7.98955396311677e-13
-5.76298051870855e-13
1.28395577863947e-12
-3.88239435061461e-13
1.6957309300891e-12
-2.15050700453608e-13
2.04436936952961e-12
-5.73532977830579e-14
2.33846303941538e-12
8.50657391639258e-14
2.5852264000305e-12
2.12808210113796e-13
2.79073043752423e-12
3.26834012657803e-13
2.96000587813141e-12
4.28185137406618e-13
3.09726284930785e-12
5.18062437421567e-13
3.20599194525837e-12
5.97619442697722e-13
3.28907695690788e-12
6.68104236537664e-13
3.3488641271625e-12
7.30671649371824e-13
3.38729117208631e-12
7.86553289977345e-13
3.40578246375049e-12
8.36875865540924e-13
3.40546926187441e-12
8.82841278328964e-13
3.38715585142712e-12
9.25554178857929e-13
3.35127659876418e-12
9.66203066937567e-13
3.29797909189471e-12
1.00589439352004e-12
3.22708282843336e-12
1.04582472643055e-12
3.13808394622227e-12
1.08713492211463e-12
3.03013077491085e-12
1.13103082905553e-12
2.90209980504618e-12
1.17867441587998e-12
2.75245726720662e-12
1.23133177212146e-12
2.57911178081045e-12
1.29015950801077e-12
2.3795953196595e-12
1.3563460922504e-12
2.15082186005425e-12
1.43087642556206e-12
1.88906186590173e-12
1.51455044097565e-12
1.58966641715154e-12
1.60776519452018e-12
1.24720173062319e-12
1.71020076794188e-12
8.55304491108556e-13
1.82025697074891e-12
4.05937904216074e-13
1.93462839640811e-12
-1.10370823439954e-13
2.0471490125048e-12
-7.04386102399099e-13
2.14758835891545e-12
-1.38875286423025e-12
2.22000358535559e-12
-2.1763839502399e-12
2.24133002099502e-12
-3.05291519250778e-12
2.18053743870005e-12
-3.78103997845999e-12
2.00085078645179e-12
-3.47030877407609e-12
1.61976792489997e-12
-1.16244636727167e-12
7.94757542451452e-13
2.44523262871664e-11