/*--------------------------------*- C++ -*----------------------------------*\
  =========                 |
  \\      /  F ield         | OpenFOAM: The Open Source CFD Toolbox
   \\    /   O peration     | Website:  https://openfoam.org
    \\  /    A nd           | Version:  10
     \\/     M anipulation  |
\*---------------------------------------------------------------------------*/
FoamFile
{
    format      ascii;
    class       volScalarField;
    location    "1.4";
    object      rho;
}
// * * * * * * * * * * * * * * * * * * * * * * * * * * * * * * * * * * * * * //

dimensions      [1 -3 0 0 0 0 0];

internalField   nonuniform List<scalar> 
2500
(
1.1419827479379
1.14235247322522
1.14244955209137
1.14246588433293
1.14246841378769
1.14246882427073
1.14246889491477
1.1424689129333
1.1424689229979
1.14246892729447
1.14246893376875
1.14246893813672
1.14246894081234
1.14246894429591
1.14246894752742
1.14246895119429
1.14246895301466
1.14246895536264
1.14246895801547
1.14246895987633
1.14246896203926
1.14246896547971
1.1424689686495
1.14246896825302
1.14246896799768
1.142468969954
1.14246896993325
1.14246897044093
1.14246897204218
1.14246897059537
1.14246896924336
1.14246896898651
1.14246896793543
1.14246896637342
1.14246896448351
1.14246896316798
1.14246896172163
1.14246896052784
1.14246895802433
1.14246895567985
1.14246895288298
1.14246894922414
1.14246894262708
1.14246892300433
1.14246882640742
1.14246834050477
1.14246563083493
1.14244908776903
1.14235050136428
1.14198254505043
1.1527235711014
1.15327354041253
1.15358633582084
1.15365350270903
1.15366669365699
1.15366920305017
1.15366965739628
1.15366973623454
1.15366975057563
1.15366975326898
1.15366975520627
1.15366975634997
1.15366975675886
1.1536697574131
1.15366975802988
1.15366975875903
1.15366975926526
1.1536697597506
1.15366976012236
1.15366976069943
1.1536697623548
1.15366976490598
1.15366976750602
1.15366976697121
1.1536697663039
1.15366976776168
1.15366976734855
1.15366976719307
1.15366976845278
1.15366976698356
1.15366976635622
1.15366976823209
1.1536697656518
1.15366976193987
1.15366976083417
1.15366976043009
1.15366976016263
1.15366975995711
1.15366975939574
1.1536697589624
1.15366975786992
1.15366975345966
1.15366973136908
1.15366961571799
1.15366902763732
1.15366617299849
1.15365253555629
1.15358588133814
1.15326826153603
1.15270343080341
1.15832246832163
1.15868896551629
1.15890963051129
1.15896378337528
1.15897476812076
1.15897691370936
1.15897731298372
1.15897738326911
1.15897739493133
1.15897739631843
1.15897739727794
1.15897739777849
1.15897739735899
1.15897739720514
1.15897739694243
1.15897739667959
1.15897739656924
1.15897739652478
1.15897739663489
1.1589773967852
1.15897739732386
1.15897739818332
1.15897739896144
1.15897739920649
1.15897739878182
1.15897739892487
1.15897739936564
1.15897739901564
1.15897739873388
1.15897739804621
1.15897739827435
1.15897739926754
1.1589773979849
1.15897739600669
1.15897739546454
1.15897739537625
1.1589773958075
1.15897739589547
1.15897739550807
1.15897739604906
1.15897739588417
1.15897739243758
1.15897737515309
1.15897728322358
1.15897681442482
1.15897452761848
1.15896351920988
1.15890986533634
1.15868496761149
1.15829205548157
1.16055492160614
1.16072322604224
1.16080413499132
1.16082649880924
1.16083104807988
1.16083193052653
1.16083209589948
1.16083212571807
1.16083213082366
1.16083213106591
1.16083213113467
1.16083213137979
1.16083213117177
1.16083213094513
1.16083213072213
1.1608321305077
1.16083213046534
1.16083213049432
1.16083213035551
1.16083213035787
1.16083213055196
1.1608321307098
1.16083213100997
1.16083213101838
1.16083213077282
1.16083213082837
1.16083213097015
1.16083213083766
1.16083213060071
1.16083213038491
1.16083213044029
1.16083213072002
1.16083213031757
1.1608321296769
1.16083212947511
1.16083212943901
1.16083212965365
1.16083212979843
1.16083212984212
1.16083213007002
1.160832130201
1.16083212911634
1.16083212283025
1.16083208974068
1.16083191697903
1.16083104242602
1.16082661501123
1.16080437544792
1.16072132432974
1.16053453485513
1.16130114983579
1.16136303580492
1.16138640782266
1.16139373911661
1.16139527126529
1.16139556951233
1.16139562577526
1.16139563609684
1.161395637856
1.16139563789364
1.16139563789755
1.16139563795567
1.16139563785499
1.16139563773816
1.16139563762957
1.16139563753517
1.161395637514
1.16139563752864
1.16139563743882
1.16139563742879
1.16139563747
1.16139563747363
1.16139563754852
1.1613956375148
1.16139563743382
1.16139563743353
1.16139563746251
1.16139563741835
1.16139563732519
1.16139563724857
1.16139563725073
1.1613956373094
1.16139563719514
1.1613956370269
1.16139563696478
1.16139563697371
1.16139563702649
1.16139563708144
1.16139563713387
1.16139563714457
1.16139563724918
1.16139563704101
1.16139563512088
1.16139562497771
1.1613955715007
1.16139529399623
1.16139384752535
1.16138657559013
1.16136240984702
1.16129165162172
1.16152125761815
1.16154084240655
1.16154675021314
1.16154883780156
1.1615492914483
1.16154938070598
1.16154939762592
1.16154940075573
1.16154940128138
1.16154940127889
1.1615494012665
1.16154940126776
1.16154940121939
1.16154940116778
1.1615494011223
1.16154940108688
1.16154940107014
1.16154940106531
1.16154940102623
1.16154940101234
1.16154940101375
1.16154940100071
1.16154940100248
1.16154940097448
1.16154940094255
1.16154940093322
1.16154940092911
1.16154940091115
1.16154940087608
1.16154940084129
1.16154940082656
1.16154940082384
1.16154940079491
1.16154940075822
1.16154940073739
1.16154940073609
1.1615494007442
1.16154940076041
1.16154940077575
1.16154940077016
1.16154940078842
1.16154940075948
1.16154940024723
1.1615493974118
1.16154938242882
1.16154930357736
1.1615488871457
1.16154682268601
1.16154068588465
1.16151769933462
1.16158036550463
1.16158592239536
1.16158730306574
1.16158784251537
1.16158796494686
1.16158798940925
1.16158799405966
1.16158799491682
1.16158799505275
1.16158799504176
1.16158799502803
1.16158799501644
1.16158799499118
1.16158799496603
1.16158799494314
1.16158799492355
1.16158799490761
1.16158799489599
1.16158799487509
1.1615879948596
1.16158799484882
1.16158799483344
1.16158799482114
1.1615879948032
1.16158799478538
1.16158799477266
1.16158799475996
1.16158799474819
1.16158799473109
1.16158799471154
1.16158799469864
1.16158799468855
1.16158799467531
1.16158799466176
1.16158799465084
1.16158799464454
1.16158799464149
1.16158799464211
1.16158799464325
1.16158799463815
1.1615879946383
1.16158799463556
1.16158799450486
1.16158799376559
1.16158798985785
1.16158796915053
1.16158785946453
1.16158732664321
1.161585893287
1.16157921645398
1.16159510638205
1.16159655673181
1.16159686484782
1.16159699465715
1.16159702542216
1.16159703168003
1.16159703286805
1.1615970330801
1.16159703310602
1.16159703309382
1.1615970330806
1.16159703306721
1.16159703305024
1.16159703303343
1.16159703301711
1.16159703300157
1.16159703298644
1.16159703297271
1.16159703295681
1.16159703294139
1.16159703292716
1.16159703291254
1.16159703289881
1.16159703288374
1.16159703286907
1.1615970328562
1.16159703284328
1.16159703283093
1.16159703281728
1.16159703280365
1.16159703279209
1.1615970327815
1.16159703277097
1.16159703276119
1.16159703275236
1.1615970327449
1.1615970327389
1.1615970327347
1.16159703273112
1.16159703272646
1.16159703272369
1.16159703272208
1.16159703268944
1.16159703250719
1.16159703154576
1.16159702643709
1.16159699944844
1.16159687117852
1.16159655370771
1.1615947734829
1.16159855773053
1.16159891201307
1.1615989789077
1.16159900848359
1.16159901578031
1.16159901728971
1.16159901757104
1.1615990176141
1.1615990176115
1.16159901759932
1.16159901758653
1.1615990175733
1.16159901755899
1.16159901754457
1.16159901753006
1.16159901751559
1.161599017501
1.16159901748675
1.16159901747202
1.16159901745719
1.16159901744267
1.16159901742823
1.16159901741411
1.16159901739997
1.16159901738621
1.16159901737306
1.16159901736
1.16159901734739
1.16159901733502
1.1615990173231
1.16159901731197
1.16159901730149
1.16159901729151
1.16159901728238
1.161599017274
1.16159901726622
1.16159901725932
1.16159901725353
1.16159901724849
1.16159901724411
1.16159901724085
1.16159901723859
1.1615990172298
1.1615990171867
1.16159901696196
1.16159901576681
1.16159900948411
1.16159898023045
1.1615989123264
1.16159846883307
1.16159931181903
1.16159939381453
1.16159940807873
1.16159941452922
1.16159941617485
1.16159941651673
1.16159941657424
1.16159941657582
1.1615994165664
1.16159941655439
1.1615994165419
1.161599416529
1.16159941651557
1.16159941650186
1.16159941648793
1.16159941647382
1.16159941645954
1.16159941644526
1.16159941643086
1.16159941641638
1.16159941640201
1.16159941638775
1.16159941637369
1.16159941635982
1.16159941634626
1.16159941633305
1.16159941632013
1.16159941630763
1.16159941629556
1.161599416284
1.16159941627302
1.16159941626262
1.16159941625278
1.16159941624365
1.16159941623525
1.16159941622745
1.16159941622047
1.16159941621436
1.16159941620903
1.16159941620455
1.16159941620097
1.16159941619834
1.16159941619499
1.16159941618472
1.16159941613459
1.16159941586819
1.16159941447342
1.16159940808974
1.1615993939165
1.16159928937827
1.16159945366439
1.16159947180745
1.16159947480517
1.16159947615969
1.16159947651106
1.16159947657974
1.16159947658477
1.16159947657682
1.16159947656602
1.16159947655426
1.16159947654202
1.16159947652937
1.1615994765163
1.1615994765029
1.16159947648924
1.16159947647535
1.16159947646128
1.16159947644712
1.16159947643288
1.16159947641861
1.1615994764044
1.1615994763903
1.16159947637637
1.16159947636264
1.16159947634919
1.16159947633605
1.16159947632325
1.16159947631085
1.16159947629891
1.16159947628745
1.16159947627653
1.16159947626618
1.16159947625642
1.1615994762473
1.16159947623887
1.16159947623112
1.16159947622412
1.16159947621791
1.16159947621249
1.1615994762079
1.16159947620416
1.16159947620133
1.16159947619905
1.16159947619604
1.16159947618521
1.16159947612869
1.16159947583225
1.16159947449041
1.16159947158714
1.16159944805461
1.16159946232401
1.16159946618783
1.16159946680816
1.16159946708069
1.16159946714806
1.16159946715568
1.16159946714912
1.16159946713927
1.16159946712838
1.16159946711687
1.16159946710488
1.16159946709246
1.16159946707963
1.16159946706646
1.161599467053
1.1615994670393
1.16159946702541
1.16159946701141
1.16159946699733
1.16159946698323
1.16159946696918
1.16159946695522
1.16159946694142
1.16159946692782
1.16159946691448
1.16159946690144
1.16159946688875
1.16159946687646
1.1615994668646
1.16159946685322
1.16159946684236
1.16159946683206
1.16159946682235
1.16159946681327
1.16159946680484
1.16159946679711
1.16159946679009
1.16159946678383
1.16159946677835
1.16159946677368
1.16159946676983
1.16159946676684
1.16159946676465
1.16159946676302
1.16159946676049
1.16159946674919
1.16159946668904
1.16159946641604
1.16159946583036
1.16159946073583
1.16159944303219
1.16159944382769
1.16159944395308
1.16159944400303
1.16159944401058
1.16159944400532
1.16159944399651
1.16159944398652
1.16159944397583
1.16159944396459
1.16159944395284
1.16159944394065
1.16159944392804
1.16159944391509
1.16159944390182
1.16159944388832
1.16159944387462
1.16159944386078
1.16159944384687
1.16159944383294
1.16159944381904
1.16159944380523
1.16159944379157
1.1615994437781
1.16159944376488
1.16159944375196
1.16159944373938
1.16159944372718
1.16159944371541
1.16159944370412
1.16159944369333
1.16159944368308
1.16159944367342
1.16159944366437
1.16159944365596
1.16159944364823
1.16159944364121
1.16159944363492
1.16159944362938
1.16159944362463
1.16159944362067
1.16159944361754
1.16159944361523
1.1615994436137
1.16159944361265
1.16159944361048
1.16159944359903
1.16159944354495
1.16159944342789
1.16159944236171
1.16159941805156
1.16159941820988
1.16159941823375
1.16159941823929
1.16159941823492
1.16159941822729
1.16159941821831
1.16159941820855
1.16159941819814
1.16159941818717
1.16159941817568
1.16159941816372
1.16159941815134
1.1615994181386
1.16159941812555
1.16159941811224
1.16159941809873
1.16159941808508
1.16159941807134
1.16159941805758
1.16159941804384
1.16159941803019
1.16159941801667
1.16159941800334
1.16159941799025
1.16159941797745
1.16159941796498
1.16159941795289
1.16159941794122
1.16159941793
1.16159941791929
1.16159941790911
1.16159941789949
1.16159941789048
1.16159941788209
1.16159941787437
1.16159941786734
1.16159941786101
1.16159941785543
1.16159941785059
1.16159941784654
1.16159941784326
1.16159941784078
1.16159941783909
1.16159941783811
1.16159941783749
1.16159941783548
1.16159941782476
1.16159941780091
1.16159941758454
1.16159939194327
1.1615993919732
1.16159939197665
1.16159939197371
1.1615993919673
1.16159939195951
1.16159939195079
1.16159939194133
1.16159939193122
1.16159939192052
1.16159939190929
1.16159939189758
1.16159939188544
1.16159939187292
1.16159939186008
1.16159939184698
1.16159939183367
1.16159939182021
1.16159939180666
1.16159939179307
1.1615993917795
1.16159939176601
1.16159939175264
1.16159939173946
1.16159939172651
1.16159939171383
1.16159939170148
1.1615993916895
1.16159939167792
1.1615993916668
1.16159939165616
1.16159939164605
1.16159939163648
1.16159939162751
1.16159939161915
1.16159939161144
1.16159939160439
1.16159939159804
1.1615993915924
1.16159939158749
1.16159939158333
1.16159939157992
1.16159939157727
1.16159939157537
1.16159939157418
1.1615993915736
1.16159939157314
1.16159939157062
1.16159939156495
1.16159939152244
1.16159936561638
1.16159936562117
1.16159936562067
1.16159936561631
1.16159936560981
1.16159936560228
1.16159936559389
1.16159936558476
1.16159936557495
1.16159936556453
1.16159936555357
1.16159936554211
1.16159936553021
1.16159936551793
1.16159936550531
1.16159936549242
1.16159936547932
1.16159936546606
1.1615993654527
1.16159936543929
1.1615993654259
1.16159936541257
1.16159936539936
1.16159936538633
1.16159936537352
1.16159936536098
1.16159936534875
1.16159936533688
1.16159936532541
1.16159936531438
1.16159936530382
1.16159936529378
1.16159936528427
1.16159936527534
1.161599365267
1.1615993652593
1.16159936525225
1.16159936524587
1.16159936524018
1.1615993652352
1.16159936523094
1.1615993652274
1.16159936522458
1.16159936522246
1.16159936522103
1.16159936522022
1.16159936521979
1.16159936521865
1.16159936521641
1.16159936520846
1.16159933924778
1.16159933924782
1.16159933924664
1.1615993392422
1.16159933923596
1.16159933922877
1.16159933922071
1.16159933921189
1.16159933920238
1.16159933919225
1.16159933918156
1.16159933917036
1.16159933915871
1.16159933914666
1.16159933913428
1.16159933912161
1.16159933910872
1.16159933909566
1.1615993390825
1.16159933906928
1.16159933905607
1.16159933904291
1.16159933902987
1.16159933901699
1.16159933900433
1.16159933899193
1.16159933897983
1.16159933896808
1.16159933895672
1.16159933894578
1.16159933893531
1.16159933892533
1.16159933891589
1.161599338907
1.16159933889869
1.161599338891
1.16159933888394
1.16159933887753
1.16159933887179
1.16159933886674
1.16159933886238
1.16159933885871
1.16159933885573
1.16159933885343
1.16159933885176
1.16159933885069
1.16159933885004
1.16159933884901
1.16159933884734
1.16159933884604
1.16159931287117
1.16159931287039
1.16159931286917
1.16159931286488
1.16159931285894
1.16159931285208
1.16159931284434
1.16159931283583
1.16159931282662
1.16159931281678
1.16159931280636
1.16159931279542
1.16159931278403
1.16159931277223
1.16159931276008
1.16159931274764
1.16159931273497
1.16159931272212
1.16159931270916
1.16159931269614
1.16159931268311
1.16159931267013
1.16159931265726
1.16159931264454
1.16159931263203
1.16159931261977
1.1615993126078
1.16159931259617
1.16159931258493
1.16159931257409
1.16159931256371
1.1615993125538
1.16159931254442
1.16159931253557
1.1615993125273
1.16159931251962
1.16159931251255
1.16159931250612
1.16159931250034
1.16159931249521
1.16159931249076
1.16159931248697
1.16159931248383
1.16159931248134
1.16159931247947
1.16159931247816
1.16159931247728
1.16159931247614
1.16159931247451
1.16159931247441
1.16159928649289
1.161599286492
1.16159928649085
1.16159928648676
1.16159928648111
1.16159928647455
1.16159928646712
1.16159928645892
1.16159928645
1.16159928644044
1.1615992864303
1.16159928641963
1.16159928640849
1.16159928639694
1.16159928638504
1.16159928637283
1.16159928636038
1.16159928634776
1.161599286335
1.16159928632218
1.16159928630934
1.16159928629655
1.16159928628385
1.1615992862713
1.16159928625894
1.16159928624682
1.16159928623499
1.16159928622349
1.16159928621236
1.16159928620162
1.16159928619133
1.16159928618151
1.16159928617218
1.16159928616339
1.16159928615514
1.16159928614747
1.1615992861404
1.16159928613395
1.16159928612812
1.16159928612293
1.16159928611838
1.16159928611447
1.16159928611119
1.16159928610853
1.16159928610646
1.16159928610494
1.16159928610384
1.16159928610258
1.1615992861009
1.16159928610097
1.16159926011412
1.16159926011326
1.16159926011219
1.16159926010828
1.1615992601029
1.16159926009663
1.1615992600895
1.1615992600816
1.16159926007297
1.1615992600637
1.16159926005384
1.16159926004344
1.16159926003256
1.16159926002127
1.16159926000961
1.16159925999764
1.16159925998542
1.16159925997301
1.16159925996047
1.16159925994785
1.16159925993521
1.1615992599226
1.16159925991008
1.1615992598977
1.1615992598855
1.16159925987353
1.16159925986184
1.16159925985047
1.16159925983945
1.16159925982882
1.16159925981862
1.16159925980888
1.16159925979962
1.16159925979087
1.16159925978266
1.16159925977501
1.16159925976793
1.16159925976145
1.16159925975558
1.16159925975032
1.16159925974569
1.16159925974166
1.16159925973825
1.16159925973543
1.16159925973318
1.16159925973147
1.16159925973019
1.1615992597288
1.16159925972707
1.16159925972713
1.16159923373511
1.1615992337343
1.1615992337333
1.16159923372956
1.16159923372444
1.16159923371845
1.16159923371161
1.16159923370399
1.16159923369565
1.16159923368667
1.16159923367708
1.16159923366696
1.16159923365635
1.16159923364531
1.1615992336339
1.16159923362217
1.16159923361019
1.161599233598
1.16159923358568
1.16159923357327
1.16159923356082
1.16159923354841
1.16159923353607
1.16159923352385
1.16159923351182
1.1615992335
1.16159923348845
1.16159923347721
1.16159923346631
1.16159923345579
1.16159923344568
1.16159923343602
1.16159923342683
1.16159923341813
1.16159923340995
1.16159923340232
1.16159923339524
1.16159923338874
1.16159923338282
1.1615992333775
1.16159923337278
1.16159923336865
1.16159923336511
1.16159923336214
1.16159923335973
1.16159923335785
1.16159923335639
1.1615992333549
1.16159923335312
1.16159923335315
1.16159920735594
1.16159920735517
1.16159920735424
1.16159920735067
1.16159920734579
1.16159920734006
1.1615992073335
1.16159920732616
1.16159920731812
1.16159920730942
1.16159920730011
1.16159920729026
1.16159920727992
1.16159920726914
1.16159920725798
1.1615992072465
1.16159920723475
1.1615992072228
1.16159920721069
1.16159920719849
1.16159920718625
1.16159920717402
1.16159920716187
1.16159920714983
1.16159920713795
1.16159920712629
1.16159920711489
1.16159920710378
1.161599207093
1.16159920708259
1.16159920707258
1.16159920706299
1.16159920705387
1.16159920704522
1.16159920703708
1.16159920702946
1.16159920702238
1.16159920701586
1.1615992070099
1.16159920700452
1.16159920699971
1.16159920699548
1.16159920699182
1.16159920698871
1.16159920698615
1.16159920698411
1.16159920698249
1.16159920698092
1.1615992069791
1.16159920697909
1.16159918097665
1.16159918097591
1.16159918097505
1.16159918097163
1.16159918096699
1.16159918096152
1.16159918095523
1.16159918094817
1.16159918094041
1.161599180932
1.16159918092297
1.1615991809134
1.16159918090333
1.16159918089281
1.16159918088191
1.16159918087067
1.16159918085916
1.16159918084744
1.16159918083555
1.16159918082356
1.16159918081152
1.16159918079949
1.16159918078752
1.16159918077566
1.16159918076395
1.16159918075244
1.16159918074118
1.16159918073021
1.16159918071955
1.16159918070925
1.16159918069933
1.16159918068983
1.16159918068078
1.16159918067218
1.16159918066408
1.16159918065648
1.1615991806494
1.16159918064285
1.16159918063685
1.16159918063141
1.16159918062652
1.16159918062219
1.16159918061841
1.16159918061517
1.16159918061247
1.16159918061028
1.16159918060853
1.16159918060687
1.16159918060502
1.16159918060497
1.16159915459729
1.16159915459658
1.16159915459579
1.16159915459252
1.1615991545881
1.16159915458288
1.16159915457685
1.16159915457008
1.1615991545626
1.16159915455447
1.16159915454573
1.16159915453643
1.16159915452663
1.16159915451638
1.16159915450573
1.16159915449475
1.16159915448347
1.16159915447198
1.16159915446031
1.16159915444854
1.1615991544367
1.16159915442487
1.16159915441308
1.1615991544014
1.16159915438986
1.16159915437851
1.16159915436739
1.16159915435655
1.16159915434602
1.16159915433583
1.16159915432601
1.16159915431659
1.1615991543076
1.16159915429906
1.16159915429099
1.16159915428341
1.16159915427633
1.16159915426976
1.16159915426373
1.16159915425822
1.16159915425325
1.16159915424882
1.16159915424493
1.16159915424157
1.16159915423873
1.1615991542364
1.16159915423451
1.16159915423278
1.1615991542309
1.16159915423083
1.16159912821789
1.16159912821721
1.16159912821647
1.16159912821335
1.16159912820916
1.16159912820419
1.16159912819843
1.16159912819193
1.16159912818473
1.16159912817688
1.16159912816843
1.16159912815941
1.16159912814988
1.16159912813989
1.1615991281295
1.16159912811876
1.16159912810773
1.16159912809647
1.16159912808502
1.16159912807346
1.16159912806183
1.16159912805019
1.16159912803859
1.16159912802708
1.16159912801571
1.16159912800452
1.16159912799355
1.16159912798284
1.16159912797243
1.16159912796235
1.16159912795263
1.1615991279433
1.16159912793438
1.16159912792589
1.16159912791786
1.16159912791029
1.16159912790321
1.16159912789663
1.16159912789055
1.16159912788498
1.16159912787994
1.16159912787541
1.16159912787141
1.16159912786792
1.16159912786495
1.16159912786249
1.16159912786048
1.16159912785867
1.16159912785677
1.16159912785668
1.1615991018385
1.16159910183785
1.16159910183717
1.1615991018342
1.16159910183023
1.1615991018255
1.16159910182
1.16159910181378
1.16159910180687
1.16159910179931
1.16159910179113
1.16159910178239
1.16159910177313
1.16159910176341
1.16159910175327
1.16159910174278
1.16159910173199
1.16159910172096
1.16159910170974
1.16159910169839
1.16159910168697
1.16159910167552
1.16159910166411
1.16159910165277
1.16159910164157
1.16159910163053
1.16159910161971
1.16159910160914
1.16159910159885
1.16159910158888
1.16159910157926
1.16159910157001
1.16159910156116
1.16159910155272
1.16159910154472
1.16159910153717
1.16159910153009
1.16159910152349
1.16159910151737
1.16159910151175
1.16159910150662
1.161599101502
1.16159910149789
1.16159910149428
1.16159910149118
1.16159910148859
1.16159910148645
1.16159910148458
1.16159910148266
1.16159910148254
1.16159907545915
1.16159907545854
1.16159907545791
1.16159907545509
1.16159907545135
1.16159907544686
1.16159907544163
1.16159907543569
1.16159907542906
1.16159907542178
1.16159907541388
1.16159907540542
1.16159907539643
1.16159907538698
1.1615990753771
1.16159907536685
1.1615990753563
1.1615990753455
1.1615990753345
1.16159907532336
1.16159907531214
1.16159907530089
1.16159907528966
1.16159907527851
1.16159907526747
1.16159907525659
1.16159907524591
1.16159907523547
1.16159907522531
1.16159907521545
1.16159907520592
1.16159907519675
1.16159907518797
1.16159907517958
1.16159907517162
1.16159907516409
1.16159907515701
1.16159907515038
1.16159907514423
1.16159907513854
1.16159907513334
1.16159907512863
1.1615990751244
1.16159907512067
1.16159907511744
1.16159907511472
1.16159907511246
1.16159907511051
1.16159907510857
1.16159907510842
1.16159904907988
1.1615990490793
1.16159904907875
1.16159904907608
1.16159904907256
1.16159904906833
1.16159904906337
1.1615990490577
1.16159904905136
1.16159904904436
1.16159904903675
1.16159904902857
1.16159904901985
1.16159904901065
1.16159904900103
1.16159904899103
1.16159904898071
1.16159904897014
1.16159904895936
1.16159904894844
1.16159904893742
1.16159904892636
1.16159904891531
1.16159904890433
1.16159904889346
1.16159904888273
1.1615990488722
1.16159904886189
1.16159904885185
1.1615990488421
1.16159904883267
1.16159904882358
1.16159904881486
1.16159904880653
1.1615990487986
1.16159904879109
1.161599048784
1.16159904877736
1.16159904877116
1.16159904876542
1.16159904876014
1.16159904875532
1.16159904875099
1.16159904874713
1.16159904874377
1.16159904874091
1.16159904873852
1.1615990487365
1.16159904873453
1.16159904873436
1.16159902270073
1.1615990227002
1.16159902269971
1.1615990226972
1.16159902269392
1.16159902268995
1.16159902268526
1.16159902267988
1.16159902267382
1.16159902266711
1.16159902265978
1.16159902265187
1.16159902264342
1.16159902263448
1.16159902262511
1.16159902261536
1.16159902260528
1.16159902259493
1.16159902258437
1.16159902257365
1.16159902256283
1.16159902255196
1.1615990225411
1.16159902253029
1.16159902251957
1.161599022509
1.16159902249861
1.16159902248843
1.16159902247851
1.16159902246887
1.16159902245953
1.16159902245053
1.16159902244187
1.16159902243359
1.1615990224257
1.1615990224182
1.16159902241111
1.16159902240445
1.16159902239821
1.1615990223924
1.16159902238704
1.16159902238213
1.16159902237767
1.16159902237369
1.16159902237019
1.16159902236719
1.16159902236466
1.16159902236257
1.16159902236057
1.16159902236036
1.16159899632175
1.16159899632126
1.16159899632085
1.1615989963185
1.16159899631547
1.16159899631177
1.16159899630736
1.16159899630227
1.1615989962965
1.16159899629007
1.16159899628302
1.16159899627539
1.16159899626721
1.16159899625853
1.16159899624941
1.16159899623989
1.16159899623004
1.16159899621992
1.16159899620957
1.16159899619906
1.16159899618844
1.16159899617776
1.16159899616707
1.16159899615643
1.16159899614588
1.16159899613545
1.1615989961252
1.16159899611515
1.16159899610535
1.16159899609581
1.16159899608656
1.16159899607764
1.16159899606905
1.16159899606082
1.16159899605295
1.16159899604547
1.16159899603838
1.16159899603169
1.16159899602541
1.16159899601954
1.16159899601409
1.16159899600908
1.1615989960045
1.16159899600039
1.16159899599674
1.16159899599359
1.16159899599092
1.16159899598873
1.1615989959867
1.16159899598645
1.16159896994296
1.16159896994253
1.1615989699422
1.16159896994003
1.16159896993726
1.16159896993383
1.16159896992972
1.16159896992492
1.16159896991944
1.16159896991331
1.16159896990654
1.16159896989917
1.16159896989126
1.16159896988283
1.16159896987396
1.16159896986468
1.16159896985506
1.16159896984515
1.16159896983502
1.1615989698247
1.16159896981427
1.16159896980378
1.16159896979327
1.16159896978279
1.16159896977239
1.16159896976212
1.161598969752
1.16159896974208
1.16159896973239
1.16159896972295
1.1615989697138
1.16159896970495
1.16159896969643
1.16159896968824
1.16159896968041
1.16159896967294
1.16159896966584
1.16159896965913
1.1615989696528
1.16159896964687
1.16159896964133
1.16159896963621
1.16159896963151
1.16159896962725
1.16159896962345
1.16159896962013
1.1615989696173
1.16159896961502
1.16159896961294
1.16159896961265
1.1615989435644
1.16159894356404
1.1615989435638
1.16159894356183
1.16159894355933
1.1615989435562
1.16159894355239
1.16159894354789
1.16159894354271
1.16159894353686
1.16159894353038
1.16159894352328
1.16159894351563
1.16159894350745
1.16159894349882
1.16159894348977
1.16159894348038
1.16159894347068
1.16159894346075
1.16159894345064
1.1615989434404
1.16159894343008
1.16159894341974
1.16159894340943
1.16159894339918
1.16159894338905
1.16159894337906
1.16159894336927
1.16159894335969
1.16159894335035
1.16159894334129
1.16159894333251
1.16159894332405
1.16159894331591
1.1615989433081
1.16159894330064
1.16159894329354
1.1615989432868
1.16159894328043
1.16159894327442
1.1615989432688
1.16159894326357
1.16159894325873
1.16159894325432
1.16159894325035
1.16159894324685
1.16159894324384
1.16159894324145
1.16159894323932
1.16159894323898
1.16159891718612
1.16159891718583
1.1615989171857
1.16159891718393
1.16159891718173
1.16159891717891
1.16159891717542
1.16159891717123
1.16159891716635
1.16159891716079
1.16159891715458
1.16159891714776
1.16159891714036
1.16159891713243
1.16159891712403
1.16159891711522
1.16159891710604
1.16159891709655
1.16159891708682
1.1615989170769
1.16159891706684
1.1615989170567
1.16159891704653
1.16159891703637
1.16159891702627
1.16159891701628
1.16159891700642
1.16159891699674
1.16159891698727
1.16159891697803
1.16159891696905
1.16159891696035
1.16159891695194
1.16159891694385
1.16159891693607
1.16159891692862
1.16159891692151
1.16159891691474
1.16159891690832
1.16159891690225
1.16159891689653
1.16159891689118
1.1615989168862
1.16159891688162
1.16159891687746
1.16159891687377
1.16159891687055
1.16159891686804
1.16159891686584
1.16159891686544
1.16159889080813
1.16159889080794
1.16159889080793
1.16159889080638
1.1615988908045
1.16159889080202
1.16159889079886
1.16159889079499
1.16159889079041
1.16159889078515
1.16159889077921
1.16159889077265
1.16159889076551
1.16159889075782
1.16159889074965
1.16159889074106
1.16159889073209
1.16159889072281
1.16159889071327
1.16159889070354
1.16159889069366
1.16159889068368
1.16159889067367
1.16159889066367
1.16159889065371
1.16159889064385
1.16159889063412
1.16159889062456
1.16159889061519
1.16159889060605
1.16159889059715
1.16159889058851
1.16159889058016
1.16159889057211
1.16159889056435
1.16159889055691
1.16159889054979
1.16159889054299
1.16159889053652
1.16159889053038
1.16159889052456
1.16159889051909
1.16159889051396
1.1615988905092
1.16159889050484
1.16159889050092
1.16159889049748
1.16159889049482
1.16159889049254
1.16159889049205
1.16159886443047
1.16159886443039
1.16159886443051
1.16159886442921
1.16159886442769
1.16159886442557
1.16159886442276
1.16159886441922
1.16159886441495
1.16159886440997
1.16159886440431
1.16159886439801
1.16159886439111
1.16159886438366
1.16159886437572
1.16159886436734
1.16159886435858
1.16159886434949
1.16159886434014
1.16159886433059
1.16159886432088
1.16159886431107
1.16159886430121
1.16159886429135
1.16159886428154
1.16159886427181
1.1615988642622
1.16159886425275
1.16159886424348
1.16159886423442
1.1615988642256
1.16159886421703
1.16159886420873
1.16159886420072
1.16159886419299
1.16159886418555
1.16159886417842
1.16159886417159