/*--------------------------------*- C++ -*----------------------------------*\
  =========                 |
  \\      /  F ield         | OpenFOAM: The Open Source CFD Toolbox
   \\    /   O peration     | Website:  https://openfoam.org
    \\  /    A nd           | Version:  10
     \\/     M anipulation  |
\*---------------------------------------------------------------------------*/
FoamFile
{
    format      ascii;
    class       volScalarField;
    location    "1.4";
    object      T;
}
// * * * * * * * * * * * * * * * * * * * * * * * * * * * * * * * * * * * * * //

dimensions      [0 0 0 1 0 0 0];

internalField   nonuniform List<scalar> 
2500
(
305.153408655159
305.054644986812
305.028723180191
305.024362609042
305.023687274539
305.023577678152
305.023558813951
305.023553999936
305.023551309424
305.023550158808
305.023548426684
305.023547256831
305.023546538732
305.023545604852
305.023544738211
305.023543755288
305.023543265324
305.023542634474
305.023541922231
305.02354142144
305.023540840025
305.02353991757
305.023539067431
305.0235391695
305.023539233971
305.023538708049
305.023538710088
305.023538571159
305.023538140394
305.023538523565
305.023538881577
305.02353894736
305.023539225372
305.023539639979
305.023540142332
305.023540491541
305.023540875897
305.023541193058
305.02354186014
305.023542485019
305.023543230954
305.023544207312
305.023545968444
305.02355120758
305.023576998089
305.023706728177
305.024430176085
305.02884703696
305.055171439009
305.15346275332
302.310050018747
302.165885393212
302.083952990739
302.066365350757
302.062911540833
302.062254508315
302.062135544889
302.062114899617
302.062111141377
302.062110432742
302.062109921976
302.062109618905
302.06210950815
302.062109333086
302.062109167771
302.062108972989
302.062108836537
302.062108705537
302.062108604272
302.062108449256
302.062108011938
302.06210734011
302.06210665554
302.062106791825
302.062106962882
302.062106577623
302.062106682325
302.062106719686
302.06210638664
302.062106768244
302.062106929572
302.062106435656
302.062107108656
302.062108078136
302.062108365431
302.062108469226
302.062108537469
302.062108589726
302.062108735392
302.062108847789
302.062109133038
302.062110287254
302.062116070963
302.062146351689
302.062300327785
302.063047753444
302.066618472376
302.084071889915
302.167268388087
302.315331933463
300.848789593616
300.753630112939
300.696364388006
300.682314273708
300.679464407728
300.678907763295
300.678804174505
300.678785936811
300.678782907911
300.678782544644
300.678782292217
300.678782158771
300.678782263941
300.678782300119
300.678782364479
300.678782428826
300.678782453577
300.678782461216
300.678782428748
300.678782385856
300.678782242236
300.678782015428
300.678781809772
300.67878174248
300.678781849013
300.67878180835
300.678781690555
300.678781778027
300.678781847923
300.678782023266
300.678781961167
300.678781700751
300.678782030936
300.678782541757
300.678782680209
300.678782701118
300.678782587457
300.678782563078
300.678782662266
300.678782520848
300.678782562824
300.678783456464
300.678787940435
300.678811790233
300.678933413363
300.679526692547
300.682382697004
300.696303345868
300.754667713582
300.856688752977
300.27006749722
300.226528446078
300.205602422374
300.199818829484
300.198642349643
300.198414140111
300.198371370486
300.198363656013
300.19836233239
300.198362266368
300.198362245121
300.198362178175
300.19836222833
300.198362283231
300.198362337129
300.198362388764
300.198362395864
300.198362384493
300.198362416508
300.198362412024
300.198362357977
300.198362313342
300.198362231949
300.198362226073
300.19836228595
300.198362268049
300.198362227952
300.198362258899
300.198362316987
300.198362369742
300.198362352519
300.198362277437
300.198362378942
300.198362542235
300.198362592222
300.198362599562
300.198362542274
300.198362503274
300.198362490651
300.198362430639
300.198362395952
300.19836267591
300.198364301288
300.198372858536
300.198417536216
300.19864370212
300.199788667119
300.205540122983
300.227020220139
300.275342134791
300.077113314713
300.061122995203
300.05508449211
300.053190391791
300.052794548799
300.052717491947
300.052702952999
300.052700283196
300.052699825457
300.052699812392
300.052699807946
300.052699789403
300.052699811804
300.052699838305
300.052699862614
300.052699883206
300.052699884843
300.052699877206
300.052699896551
300.052699895286
300.052699880805
300.05269987607
300.05269985297
300.052699857997
300.052699875307
300.052699871862
300.052699860957
300.05269986906
300.052699889948
300.052699906703
300.052699903252
300.052699885357
300.052699912313
300.052699953391
300.052699967247
300.052699962943
300.052699947522
300.052699931763
300.052699916886
300.052699913032
300.052699885174
300.052699938396
300.052700434204
300.052703054798
300.052716871283
300.052788566897
300.053162272613
300.055041035363
300.061284610616
300.079567534583
300.02024201719
300.015183361287
300.013657436515
300.013118235039
300.013001060561
300.012978003377
300.012973630097
300.012972818581
300.012972679602
300.012972676941
300.012972676742
300.012972672923
300.012972681837
300.012972691513
300.012972699544
300.012972704923
300.012972705441
300.012972702858
300.012972709114
300.012972708867
300.012972704689
300.012972704279
300.012972700092
300.012972703654
300.012972708308
300.012972707211
300.012972704868
300.012972706215
300.012972712105
300.012972718061
300.012972718981
300.012972716955
300.012972721868
300.01297272896
300.012972732147
300.012972730486
300.012972726603
300.012972720845
300.012972715541
300.012972715884
300.012972710317
300.012972717209
300.012972849219
300.012973581592
300.012977451878
300.012997818993
300.013105379412
300.013638605612
300.015223676574
300.021161009572
300.004968450512
300.003533260249
300.003176673002
300.003037346505
300.003005722922
300.002999402001
300.002998197919
300.002997973462
300.002997935192
300.002997934772
300.002997934957
300.002997934494
300.002997937475
300.002997940351
300.002997942577
300.002997943897
300.002997944235
300.002997943435
300.00299794502
300.002997945213
300.002997944209
300.002997944423
300.002997943892
300.002997944875
300.002997945902
300.002997945701
300.002997945593
300.002997945355
300.002997946617
300.002997948646
300.002997949103
300.002997948989
300.002997949856
300.002997950976
300.002997951603
300.002997951232
300.002997950228
300.002997948492
300.002997946843
300.002997947044
300.002997946135
300.002997946232
300.002997979658
300.002998170567
300.002999180147
300.003004528968
300.003032858899
300.00317047211
300.003540665713
300.005265107218
300.001154514735
300.000779937051
300.000700360179
300.000666832341
300.000658883774
300.000657264657
300.000656954885
300.000656897102
300.000656887298
300.000656887236
300.000656887337
300.000656887379
300.00065688826
300.000656889017
300.000656889581
300.000656889891
300.000656890053
300.000656889827
300.000656890152
300.000656890353
300.000656890266
300.000656890311
300.000656890172
300.000656890437
300.000656890672
300.000656890528
300.000656890495
300.000656890424
300.000656890811
300.000656891323
300.000656891446
300.00065689147
300.000656891644
300.000656891796
300.000656891887
300.000656891815
300.000656891567
300.000656891067
300.000656890628
300.000656890695
300.000656890518
300.000656890296
300.000656898361
300.000656945358
300.000657193926
300.000658513972
300.00066548536
300.000698614206
300.000780606285
300.001240379558
300.000256337653
300.000164837859
300.000147560325
300.000139919676
300.000138032392
300.000137639768
300.000137564249
300.000137550181
300.000137547803
300.000137547791
300.000137547827
300.000137547874
300.00013754811
300.000137548293
300.000137548428
300.000137548498
300.000137548555
300.000137548499
300.000137548554
300.000137548633
300.00013754865
300.000137548676
300.000137548664
300.000137548717
300.00013754874
300.00013754869
300.000137548713
300.000137548728
300.0001375488
300.000137548887
300.00013754891
300.000137548917
300.000137548957
300.000137548947
300.000137548922
300.000137548934
300.000137548916
300.000137548819
300.000137548742
300.000137548722
300.000137548647
300.000137548562
300.000137550424
300.000137561432
300.000137619659
300.000137928861
300.000139552389
300.000147108381
300.000164645808
300.000279185473
300.000054771185
300.000033593827
300.000029908925
300.000028240994
300.0000278134
300.000027722439
300.000027704821
300.000027701544
300.000027700992
300.000027700991
300.000027701005
300.000027701019
300.000027701073
300.000027701113
300.000027701144
300.000027701159
300.000027701176
300.000027701164
300.00002770117
300.000027701192
300.000027701205
300.000027701213
300.000027701215
300.000027701223
300.000027701223
300.00002770121
300.000027701221
300.000027701229
300.000027701241
300.000027701251
300.000027701252
300.000027701249
300.000027701261
300.000027701256
300.000027701243
300.000027701258
300.000027701256
300.000027701234
300.000027701221
300.000027701208
300.00002770119
300.000027701169
300.000027701582
300.000027704049
300.0000277171
300.000027786315
300.000028147254
300.00002979648
300.000033457097
300.000060456272
300.000011325552
300.000006639186
300.000005864064
300.000005512427
300.000005419292
300.000005399024
300.000005395063
300.000005394326
300.000005394201
300.0000053942
300.000005394203
300.000005394206
300.000005394217
300.000005394225
300.000005394231
300.000005394234
300.000005394238
300.000005394235
300.000005394235
300.000005394241
300.000005394245
300.000005394247
300.000005394248
300.000005394248
300.000005394248
300.000005394245
300.000005394247
300.00000539425
300.000005394251
300.000005394252
300.000005394252
300.00000539425
300.000005394252
300.000005394252
300.000005394249
300.000005394253
300.000005394253
300.000005394249
300.000005394246
300.000005394243
300.00000539424
300.000005394235
300.000005394325
300.000005394857
300.00000539767
300.000005412556
300.000005489648
300.000005836553
300.000006586496
300.000012664583
300.000002277005
300.000001278578
300.000001117505
300.000001045456
300.000001025838
300.000001021472
300.000001020608
300.000001020446
300.000001020418
300.000001020417
300.000001020416
300.000001020416
300.000001020418
300.000001020419
300.00000102042
300.00000102042
300.00000102042
300.000001020419
300.000001020419
300.00000102042
300.00000102042
300.00000102042
300.00000102042
300.00000102042
300.00000102042
300.000001020419
300.000001020419
300.00000102042
300.00000102042
300.00000102042
300.00000102042
300.000001020419
300.00000102042
300.00000102042
300.000001020419
300.00000102042
300.000001020421
300.00000102042
300.00000102042
300.000001020419
300.000001020419
300.000001020419
300.000001020439
300.000001020551
300.000001021137
300.000001024228
300.00000104013
300.00000111084
300.000001262188
300.000002578266
300.000000447235
300.000000241336
300.000000208138
300.000000193693
300.000000189675
300.000000188761
300.000000188577
300.000000188541
300.000000188534
300.000000188533
300.000000188532
300.000000188531
300.00000018853
300.00000018853
300.000000188529
300.000000188529
300.000000188528
300.000000188528
300.000000188527
300.000000188527
300.000000188527
300.000000188526
300.000000188526
300.000000188526
300.000000188526
300.000000188525
300.000000188525
300.000000188525
300.000000188525
300.000000188525
300.000000188525
300.000000188525
300.000000188525
300.000000188525
300.000000188525
300.000000188525
300.000000188526
300.000000188526
300.000000188526
300.000000188527
300.000000188527
300.000000188528
300.000000188533
300.000000188557
300.000000188676
300.000000189299
300.000000192484
300.000000206541
300.000000236815
300.000000512424
300.000000086597
300.000000045321
300.000000038389
300.000000035511
300.000000034704
300.000000034516
300.000000034477
300.000000034468
300.000000034466
300.000000034464
300.000000034463
300.000000034462
300.000000034461
300.00000003446
300.000000034459
300.000000034459
300.000000034458
300.000000034457
300.000000034457
300.000000034456
300.000000034456
300.000000034456
300.000000034455
300.000000034455
300.000000034455
300.000000034454
300.000000034454
300.000000034454
300.000000034454
300.000000034454
300.000000034454
300.000000034454
300.000000034454
300.000000034454
300.000000034454
300.000000034454
300.000000034455
300.000000034455
300.000000034456
300.000000034456
300.000000034457
300.000000034458
300.00000003446
300.000000034466
300.000000034491
300.000000034614
300.000000035239
300.000000038008
300.000000044166
300.000000100231
300.000000017099
300.000000009031
300.000000007415
300.000000006809
300.000000006646
300.000000006607
300.000000006598
300.000000006595
300.000000006593
300.000000006591
300.00000000659
300.000000006589
300.000000006588
300.000000006587
300.000000006586
300.000000006586
300.000000006585
300.000000006584
300.000000006584
300.000000006583
300.000000006583
300.000000006582
300.000000006582
300.000000006581
300.000000006581
300.000000006581
300.000000006581
300.00000000658
300.00000000658
300.00000000658
300.00000000658
300.00000000658
300.00000000658
300.00000000658
300.00000000658
300.000000006581
300.000000006581
300.000000006582
300.000000006582
300.000000006583
300.000000006584
300.000000006585
300.000000006586
300.000000006588
300.000000006594
300.000000006619
300.000000006744
300.000000007321
300.000000008745
300.00000001986
300.00000000397
300.000000002432
300.000000001876
300.000000001707
300.00000000167
300.000000001661
300.000000001658
300.000000001656
300.000000001655
300.000000001653
300.000000001652
300.000000001651
300.00000000165
300.000000001649
300.000000001648
300.000000001647
300.000000001647
300.000000001646
300.000000001645
300.000000001645
300.000000001644
300.000000001644
300.000000001643
300.000000001643
300.000000001643
300.000000001642
300.000000001642
300.000000001642
300.000000001642
300.000000001642
300.000000001642
300.000000001642
300.000000001642
300.000000001642
300.000000001642
300.000000001642
300.000000001643
300.000000001643
300.000000001644
300.000000001644
300.000000001645
300.000000001646
300.000000001648
300.000000001649
300.000000001651
300.000000001657
300.000000001686
300.000000001848
300.000000002355
300.000000004505
300.000000001534
300.000000001251
300.000000000903
300.000000000817
300.000000000805
300.000000000802
300.0000000008
300.000000000798
300.000000000797
300.000000000795
300.000000000794
300.000000000793
300.000000000792
300.000000000791
300.00000000079
300.000000000789
300.000000000788
300.000000000788
300.000000000787
300.000000000786
300.000000000786
300.000000000785
300.000000000785
300.000000000785
300.000000000784
300.000000000784
300.000000000784
300.000000000783
300.000000000783
300.000000000783
300.000000000783
300.000000000783
300.000000000783
300.000000000783
300.000000000784
300.000000000784
300.000000000784
300.000000000785
300.000000000785
300.000000000786
300.000000000787
300.000000000788
300.000000000789
300.00000000079
300.000000000792
300.000000000794
300.000000000805
300.000000000889
300.000000001222
300.000000001624
300.000000001089
300.000000001042
300.000000000734
300.000000000665
300.000000000657
300.000000000655
300.000000000654
300.000000000652
300.000000000651
300.000000000649
300.000000000648
300.000000000647
300.000000000646
300.000000000645
300.000000000644
300.000000000643
300.000000000642
300.000000000642
300.000000000641
300.00000000064
300.00000000064
300.000000000639
300.000000000639
300.000000000638
300.000000000638
300.000000000638
300.000000000637
300.000000000637
300.000000000637
300.000000000637
300.000000000637
300.000000000637
300.000000000637
300.000000000637
300.000000000637
300.000000000638
300.000000000638
300.000000000639
300.000000000639
300.00000000064
300.000000000641
300.000000000642
300.000000000643
300.000000000644
300.000000000645
300.000000000647
300.000000000654
300.000000000724
300.000000001023
300.000000001093
300.000000001009
300.000000001006
300.000000000706
300.000000000639
300.000000000632
300.000000000631
300.00000000063
300.000000000628
300.000000000627
300.000000000625
300.000000000624
300.000000000623
300.000000000622
300.000000000621
300.00000000062
300.000000000619
300.000000000618
300.000000000617
300.000000000617
300.000000000616
300.000000000616
300.000000000615
300.000000000615
300.000000000614
300.000000000614
300.000000000614
300.000000000613
300.000000000613
300.000000000613
300.000000000613
300.000000000613
300.000000000613
300.000000000613
300.000000000613
300.000000000613
300.000000000613
300.000000000614
300.000000000614
300.000000000615
300.000000000616
300.000000000617
300.000000000617
300.000000000619
300.00000000062
300.000000000621
300.000000000622
300.000000000629
300.000000000696
300.000000000989
300.000000000996
300.000000000994
300.000000001
300.000000000701
300.000000000635
300.000000000629
300.000000000628
300.000000000626
300.000000000625
300.000000000623
300.000000000622
300.000000000621
300.000000000619
300.000000000618
300.000000000617
300.000000000616
300.000000000616
300.000000000615
300.000000000614
300.000000000613
300.000000000613
300.000000000612
300.000000000612
300.000000000611
300.000000000611
300.00000000061
300.00000000061
300.00000000061
300.000000000609
300.000000000609
300.000000000609
300.000000000609
300.000000000609
300.000000000609
300.000000000609
300.00000000061
300.00000000061
300.00000000061
300.000000000611
300.000000000611
300.000000000612
300.000000000613
300.000000000614
300.000000000615
300.000000000616
300.000000000617
300.000000000618
300.000000000625
300.000000000691
300.000000000983
300.000000000978
300.000000000992
300.000000000999
300.000000000701
300.000000000635
300.000000000628
300.000000000627
300.000000000626
300.000000000625
300.000000000623
300.000000000622
300.000000000621
300.000000000619
300.000000000618
300.000000000617
300.000000000616
300.000000000615
300.000000000615
300.000000000614
300.000000000613
300.000000000612
300.000000000612
300.000000000611
300.000000000611
300.00000000061
300.00000000061
300.00000000061
300.000000000609
300.000000000609
300.000000000609
300.000000000609
300.000000000609
300.000000000609
300.000000000609
300.000000000609
300.000000000609
300.00000000061
300.00000000061
300.000000000611
300.000000000611
300.000000000612
300.000000000613
300.000000000614
300.000000000615
300.000000000616
300.000000000617
300.000000000618
300.000000000624
300.000000000691
300.000000000982
300.000000000975
300.000000000992
300.000000000999
300.000000000701
300.000000000635
300.000000000629
300.000000000627
300.000000000626
300.000000000625
300.000000000623
300.000000000622
300.000000000621
300.00000000062
300.000000000619
300.000000000618
300.000000000617
300.000000000616
300.000000000615
300.000000000614
300.000000000613
300.000000000613
300.000000000612
300.000000000612
300.000000000611
300.000000000611
300.00000000061
300.00000000061
300.00000000061
300.000000000609
300.000000000609
300.000000000609
300.000000000609
300.000000000609
300.000000000609
300.000000000609
300.00000000061
300.00000000061
300.00000000061
300.000000000611
300.000000000611
300.000000000612
300.000000000613
300.000000000614
300.000000000615
300.000000000616
300.000000000617
300.000000000618
300.000000000624
300.00000000069
300.000000000981
300.000000000974
300.000000000992
300.000000000999
300.000000000701
300.000000000635
300.000000000629
300.000000000628
300.000000000626
300.000000000625
300.000000000624
300.000000000622
300.000000000621
300.00000000062
300.000000000619
300.000000000618
300.000000000617
300.000000000616
300.000000000615
300.000000000614
300.000000000614
300.000000000613
300.000000000612
300.000000000612
300.000000000611
300.000000000611
300.000000000611
300.00000000061
300.00000000061
300.00000000061
300.00000000061
300.000000000609
300.000000000609
300.000000000609
300.000000000609
300.00000000061
300.00000000061
300.00000000061
300.00000000061
300.000000000611
300.000000000612
300.000000000612
300.000000000613
300.000000000614
300.000000000615
300.000000000616
300.000000000617
300.000000000618
300.000000000624
300.00000000069
300.000000000981
300.000000000974
300.000000000991
300.000000000999
300.000000000701
300.000000000635
300.000000000629
300.000000000628
300.000000000627
300.000000000625
300.000000000624
300.000000000623
300.000000000621
300.00000000062
300.000000000619
300.000000000618
300.000000000617
300.000000000616
300.000000000615
300.000000000615
300.000000000614
300.000000000613
300.000000000613
300.000000000612
300.000000000612
300.000000000611
300.000000000611
300.00000000061
300.00000000061
300.00000000061
300.00000000061
300.00000000061
300.000000000609
300.000000000609
300.00000000061
300.00000000061
300.00000000061
300.00000000061
300.000000000611
300.000000000611
300.000000000612
300.000000000612
300.000000000613
300.000000000614
300.000000000615
300.000000000616
300.000000000617
300.000000000618
300.000000000624
300.00000000069
300.000000000981
300.000000000974
300.000000000991
300.000000000999
300.000000000701
300.000000000635
300.000000000629
300.000000000628
300.000000000627
300.000000000625
300.000000000624
300.000000000623
300.000000000621
300.00000000062
300.000000000619
300.000000000618
300.000000000617
300.000000000616
300.000000000615
300.000000000615
300.000000000614
300.000000000613
300.000000000613
300.000000000612
300.000000000612
300.000000000611
300.000000000611
300.00000000061
300.00000000061
300.00000000061
300.00000000061
300.00000000061
300.00000000061
300.00000000061
300.00000000061
300.00000000061
300.00000000061
300.00000000061
300.000000000611
300.000000000611
300.000000000612
300.000000000613
300.000000000613
300.000000000614
300.000000000615
300.000000000616
300.000000000617
300.000000000618
300.000000000624
300.00000000069
300.000000000981
300.000000000973
300.000000000991
300.000000000999
300.000000000701
300.000000000635
300.000000000629
300.000000000628
300.000000000627
300.000000000625
300.000000000624
300.000000000623
300.000000000621
300.00000000062
300.000000000619
300.000000000618
300.000000000617
300.000000000616
300.000000000615
300.000000000615
300.000000000614
300.000000000613
300.000000000613
300.000000000612
300.000000000612
300.000000000611
300.000000000611
300.00000000061
300.00000000061
300.00000000061
300.00000000061
300.00000000061
300.000000000609
300.000000000609
300.00000000061
300.00000000061
300.00000000061
300.00000000061
300.000000000611
300.000000000611
300.000000000612
300.000000000612
300.000000000613
300.000000000614
300.000000000615
300.000000000616
300.000000000617
300.000000000618
300.000000000624
300.00000000069
300.000000000981
300.000000000973
300.000000000991
300.000000000999
300.000000000701
300.000000000635
300.000000000629
300.000000000628
300.000000000626
300.000000000625
300.000000000624
300.000000000622
300.000000000621
300.00000000062
300.000000000619
300.000000000618
300.000000000617
300.000000000616
300.000000000615
300.000000000614
300.000000000614
300.000000000613
300.000000000612
300.000000000612
300.000000000611
300.000000000611
300.00000000061
300.00000000061
300.00000000061
300.00000000061
300.000000000609
300.000000000609
300.000000000609
300.000000000609
300.000000000609
300.00000000061
300.00000000061
300.00000000061
300.000000000611
300.000000000611
300.000000000612
300.000000000612
300.000000000613
300.000000000614
300.000000000615
300.000000000616
300.000000000617
300.000000000618
300.000000000624
300.00000000069
300.000000000981
300.000000000973
300.000000000991
300.000000000999
300.0000000007
300.000000000635
300.000000000628
300.000000000627
300.000000000626
300.000000000625
300.000000000623
300.000000000622
300.000000000621
300.00000000062
300.000000000619
300.000000000617
300.000000000617
300.000000000616
300.000000000615
300.000000000614
300.000000000613
300.000000000613
300.000000000612
300.000000000612
300.000000000611
300.000000000611
300.00000000061
300.00000000061
300.00000000061
300.000000000609
300.000000000609
300.000000000609
300.000000000609
300.000000000609
300.000000000609
300.000000000609
300.00000000061
300.00000000061
300.00000000061
300.000000000611
300.000000000611
300.000000000612
300.000000000613
300.000000000614
300.000000000615
300.000000000616
300.000000000617
300.000000000618
300.000000000624
300.00000000069
300.000000000981
300.000000000973
300.000000000991
300.000000000998
300.0000000007
300.000000000634
300.000000000628
300.000000000627
300.000000000626
300.000000000624
300.000000000623
300.000000000622
300.00000000062
300.000000000619
300.000000000618
300.000000000617
300.000000000616
300.000000000615
300.000000000614
300.000000000614
300.000000000613
300.000000000612
300.000000000612
300.000000000611
300.000000000611
300.00000000061
300.00000000061
300.00000000061
300.000000000609
300.000000000609
300.000000000609
300.000000000609
300.000000000609
300.000000000609
300.000000000609
300.000000000609
300.000000000609
300.00000000061
300.00000000061
300.00000000061
300.000000000611
300.000000000612
300.000000000613
300.000000000614
300.000000000615
300.000000000616
300.000000000617
300.000000000617
300.000000000624
300.00000000069
300.000000000981
300.000000000973
300.00000000099
300.000000000998
300.0000000007
300.000000000634
300.000000000628
300.000000000626
300.000000000625
300.000000000624
300.000000000622
300.000000000621
300.00000000062
300.000000000619
300.000000000617
300.000000000616
300.000000000616
300.000000000615
300.000000000614
300.000000000613
300.000000000612
300.000000000612
300.000000000611
300.000000000611
300.00000000061
300.00000000061
300.000000000609
300.000000000609
300.000000000609
300.000000000609
300.000000000609
300.000000000608
300.000000000608
300.000000000608
300.000000000608
300.000000000609
300.000000000609
300.000000000609
300.00000000061
300.00000000061
300.000000000611
300.000000000611
300.000000000612
300.000000000613
300.000000000614
300.000000000615
300.000000000616
300.000000000617
300.000000000624
300.00000000069
300.000000000981
300.000000000973
300.00000000099
300.000000000997
300.0000000007
300.000000000633
300.000000000627
300.000000000626
300.000000000625
300.000000000623
300.000000000622
300.00000000062
300.000000000619
300.000000000618
300.000000000617
300.000000000616
300.000000000615
300.000000000614
300.000000000613
300.000000000612
300.000000000612
300.000000000611
300.000000000611
300.00000000061
300.00000000061
300.000000000609
300.000000000609
300.000000000609
300.000000000608
300.000000000608
300.000000000608
300.000000000608
300.000000000608
300.000000000608
300.000000000608
300.000000000608
300.000000000608
300.000000000609
300.000000000609
300.00000000061
300.00000000061
300.000000000611
300.000000000612
300.000000000613
300.000000000614
300.000000000615
300.000000000616
300.000000000617
300.000000000624
300.00000000069
300.000000000981
300.000000000973
300.00000000099
300.000000000997
300.000000000699
300.000000000633
300.000000000626
300.000000000625
300.000000000624
300.000000000622
300.000000000621
300.000000000619
300.000000000618
300.000000000617
300.000000000616
300.000000000615
300.000000000614
300.000000000613
300.000000000612
300.000000000612
300.000000000611
300.00000000061
300.00000000061
300.000000000609
300.000000000609
300.000000000609
300.000000000608
300.000000000608
300.000000000608
300.000000000607
300.000000000607
300.000000000607
300.000000000607
300.000000000607
300.000000000607
300.000000000607
300.000000000608
300.000000000608
300.000000000608
300.000000000609
300.00000000061
300.00000000061
300.000000000611
300.000000000612
300.000000000613
300.000000000614
300.000000000616
300.000000000617
300.000000000623
300.00000000069
300.000000000981
300.000000000974
300.00000000099
300.000000000997
300.000000000699
300.000000000632
300.000000000626
300.000000000624
300.000000000623
300.000000000621
300.00000000062
300.000000000619
300.000000000617
300.000000000616
300.000000000615
300.000000000614
300.000000000613
300.000000000612
300.000000000612
300.000000000611
300.00000000061
300.00000000061
300.000000000609
300.000000000609
300.000000000608
300.000000000608
300.000000000608
300.000000000607
300.000000000607
300.000000000607
300.000000000607
300.000000000607
300.000000000607
300.000000000607
300.000000000607
300.000000000607
300.000000000607
300.000000000607
300.000000000608
300.000000000608
300.000000000609
300.00000000061
300.00000000061
300.000000000611
300.000000000613
300.000000000614
300.000000000615
300.000000000616
300.000000000623
300.00000000069
300.000000000981
300.000000000974
300.000000000989
300.000000000996
300.000000000698
300.000000000632
300.000000000625
300.000000000624
300.000000000622
300.00000000062
300.000000000619
300.000000000617
300.000000000616
300.000000000615
300.000000000614
300.000000000613
300.000000000612
300.000000000611
300.000000000611
300.00000000061
300.000000000609
300.000000000609
300.000000000608
300.000000000608
300.000000000607
300.000000000607
300.000000000607
300.000000000606
300.000000000606
300.000000000606
300.000000000606
300.000000000606
300.000000000606
300.000000000606
300.000000000606
300.000000000606
300.000000000606
300.000000000607
300.000000000607
300.000000000607
300.000000000608
300.000000000609
300.00000000061
300.000000000611
300.000000000612
300.000000000613
300.000000000614
300.000000000616
300.000000000623
300.00000000069
300.000000000981
300.000000000974
300.000000000989
300.000000000996
300.000000000698
300.000000000631
300.000000000624
300.000000000622
300.000000000621
300.000000000619
300.000000000618
300.000000000616
300.000000000615
300.000000000614
300.000000000613
300.000000000612
300.000000000611
300.00000000061
300.00000000061
300.000000000609
300.000000000608
300.000000000608
300.000000000607
300.000000000607
300.000000000606
300.000000000606
300.000000000606
300.000000000605
300.000000000605
300.000000000605
300.000000000605
300.000000000605
300.000000000605
300.000000000605
300.000000000605
300.000000000605
300.000000000605
300.000000000606
300.000000000606
300.000000000607
300.000000000607