/*--------------------------------*- C++ -*----------------------------------*\
  =========                 |
  \\      /  F ield         | OpenFOAM: The Open Source CFD Toolbox
   \\    /   O peration     | Website:  https://openfoam.org
    \\  /    A nd           | Version:  10
     \\/     M anipulation  |
\*---------------------------------------------------------------------------*/
FoamFile
{
    format      ascii;
    class       volVectorField;
    location    "1.4";
    object      U;
}
// * * * * * * * * * * * * * * * * * * * * * * * * * * * * * * * * * * * * * //

dimensions      [0 1 -1 0 0 0 0];

internalField   nonuniform List<vector> 
2500
(
(-2.56241731157557e-06 -1.11475797521007e-05 5.61260036248408e-25)
(-3.99038935192467e-06 -9.20879743405093e-06 -1.40248743806466e-24)
(-2.56942995403188e-06 -9.06819102762983e-06 5.99758009935507e-25)
(-1.80695559035915e-06 -8.53731864060022e-06 -2.85837404205424e-25)
(-1.20749056830577e-06 -8.34417318318216e-06 -3.21927302571976e-24)
(-8.34351363577841e-07 -8.29659462499478e-06 1.15210419997882e-25)
(-5.21918533563669e-07 -8.28009732255811e-06 1.34048915454768e-26)
(-2.69042096555842e-07 -8.27435554631791e-06 4.60623416282188e-26)
(-5.25111182549845e-08 -8.27143883983336e-06 7.93120071089834e-25)
(1.35916558267732e-07 -8.269599888668e-06 -8.08166626589207e-24)
(3.00998631933615e-07 -8.26834321568782e-06 1.08883857802018e-26)
(4.4575656059126e-07 -8.2674737131581e-06 -9.44766933307603e-24)
(5.7264020381862e-07 -8.26688123258928e-06 -4.71433667616154e-24)
(6.83620228907412e-07 -8.26649834420979e-06 4.50778555700509e-26)
(7.80181867607293e-07 -8.26628055851838e-06 -9.86993554675539e-24)
(8.63664981518281e-07 -8.26619617838832e-06 1.75697171357542e-25)
(9.35251349139523e-07 -8.26620456206099e-06 -6.09991909551285e-24)
(9.95956357559516e-07 -8.26630913822221e-06 -9.72594895801176e-24)
(1.04669605051834e-06 -8.26647902730063e-06 5.73878763279194e-25)
(1.08832750222671e-06 -8.26671522914067e-06 -2.32593209850254e-24)
(1.12164881424739e-06 -8.26700797961259e-06 5.79785114066689e-25)
(1.14743954795324e-06 -8.2673089679433e-06 6.27962125573354e-25)
(1.16644659119255e-06 -8.26764623269448e-06 -1.02437079447262e-23)
(1.17935900467976e-06 -8.26806381375279e-06 6.49459549156067e-26)
(1.18685482073605e-06 -8.2685107621203e-06 9.58387336798707e-25)
(1.18967215725716e-06 -8.26896118425859e-06 -5.83863092182743e-24)
(1.18851911277275e-06 -8.26944180965025e-06 9.29984953239389e-25)
(1.18406097879671e-06 -8.26998247303915e-06 -5.7019337497686e-25)
(1.17703746676598e-06 -8.27053042652124e-06 -1.20540722515115e-23)
(1.16813690498087e-06 -8.27111396457233e-06 3.67982070589285e-25)
(1.15808640396325e-06 -8.27170379261591e-06 -5.27744699308893e-25)
(1.14768603816605e-06 -8.27232787772486e-06 3.79042465151844e-25)
(1.13775879207329e-06 -8.27301858313075e-06 -5.86294587666615e-25)
(1.12920967614629e-06 -8.27374820908375e-06 -4.26848527206947e-25)
(1.12302011237686e-06 -8.27452587741324e-06 3.38947255157673e-25)
(1.12032771628372e-06 -8.27536183489811e-06 -9.58257866233794e-24)
(1.12244986333052e-06 -8.2762568567976e-06 5.84254560759038e-24)
(1.13089276570982e-06 -8.27728557773743e-06 -5.08917998033105e-25)
(1.14745492134538e-06 -8.27846059749037e-06 -2.5410430799547e-25)
(1.17432388426478e-06 -8.27982487960487e-06 2.38465135613257e-24)
(1.21425609434362e-06 -8.28148846319849e-06 5.88187299260267e-24)
(1.27090138668685e-06 -8.2836608314195e-06 1.2228874834787e-23)
(1.34971890794773e-06 -8.286929461026e-06 4.61454683399405e-24)
(1.46014581723398e-06 -8.29332530641661e-06 5.59552949952429e-24)
(1.62782538568819e-06 -8.31144823724461e-06 7.44280754639889e-24)
(1.85834293676601e-06 -8.36215492114227e-06 5.81587911539301e-24)
(2.29848878298708e-06 -8.55352466221792e-06 1.26159023072462e-23)
(2.89308781843355e-06 -9.08208872464607e-06 6.83647323395156e-24)
(4.18458847631609e-06 -9.23803282311488e-06 6.4532073857607e-24)
(2.6317972625476e-06 -1.10160180345615e-05 6.32913017247122e-24)
(-2.79898512124422e-06 -9.82079014034666e-07 9.8896760714762e-25)
(-3.88121873618759e-06 1.7003553802668e-06 1.09027276413272e-23)
(-3.57832240914146e-06 1.01650435822505e-06 1.04433176656342e-24)
(-2.87489981854971e-06 1.59580312941729e-06 -9.08004439012784e-25)
(-2.31413610298004e-06 1.83560447103077e-06 3.26860558403397e-25)
(-1.82314819737752e-06 1.93358547793153e-06 3.16855755987632e-24)
(-1.33157438665438e-06 1.98985789128793e-06 2.5600277336655e-25)
(-9.1288064406447e-07 2.0256447576356e-06 4.3071657441173e-25)
(-5.50745399532727e-07 2.05122908155741e-06 5.89813252623902e-24)
(-2.36320892606033e-07 2.07056388614556e-06 5.2840880303339e-24)
(3.79104002112678e-08 2.08560677752499e-06 -3.17448910124034e-24)
(2.77650975684845e-07 2.09751700932039e-06 1.55685316344352e-24)
(4.8744613789693e-07 2.10696149451434e-06 6.66606631602292e-24)
(6.70923764313759e-07 2.11453751037643e-06 -4.15779005162123e-24)
(8.30988325127268e-07 2.1206530523112e-06 3.92110043790737e-24)
(9.7011585678356e-07 2.12553057175367e-06 6.77821313029695e-25)
(1.09042034933036e-06 2.129416091441e-06 1.27972449378966e-24)
(1.19375919734343e-06 2.13244942751389e-06 4.51791065891037e-24)
(1.28177718479884e-06 2.13476502145608e-06 1.29167396611758e-24)
(1.35595232786103e-06 2.13643553784962e-06 8.1844733288298e-24)
(1.41769453453132e-06 2.13752321626854e-06 1.2299677439822e-24)
(1.46834249362527e-06 2.13813605432626e-06 5.60461471144129e-24)
(1.50908551367813e-06 2.13826647104567e-06 5.31628877962884e-25)
(1.5411275051466e-06 2.13791463450952e-06 5.34158495250464e-25)
(1.56567288823738e-06 2.1371535568826e-06 4.53630130859512e-24)
(1.58385278729241e-06 2.13604772490431e-06 3.34952201665317e-24)
(1.59682182160132e-06 2.13451771917297e-06 4.13955908237217e-24)
(1.6057742463828e-06 2.13252482112229e-06 -4.87258060958176e-24)
(1.61186199366417e-06 2.13016303413835e-06 -2.57384160165219e-25)
(1.61624738313548e-06 2.12735912245383e-06 3.88375951414762e-24)
(1.62020457805188e-06 2.12415082639349e-06 -4.77013378867763e-24)
(1.6250126579238e-06 2.12042142830348e-06 3.29833743057089e-24)
(1.6321195317775e-06 2.11613885423766e-06 -4.94525545407533e-24)
(1.64311560346654e-06 2.11122551296041e-06 -4.19926463720379e-24)
(1.65969322345872e-06 2.10558332285657e-06 3.95536915435742e-24)
(1.68383729301208e-06 2.09908754937321e-06 -2.6931204302932e-25)
(1.71785788315627e-06 2.09154729555311e-06 -2.58230236062286e-24)
(1.76445993194529e-06 2.08269088100394e-06 -6.52931979095985e-25)
(1.82687670156254e-06 2.072197153376e-06 -3.05082851169635e-24)
(1.90905554327416e-06 2.05953898863698e-06 5.1000862028367e-24)
(2.0159816616345e-06 2.04396943815308e-06 -3.82240522426123e-26)
(2.15399510813148e-06 2.02428102489973e-06 1.81149646650563e-24)
(2.33141420658152e-06 1.99833673098214e-06 1.23288181759942e-23)
(2.55839265755787e-06 1.96156728592116e-06 4.83796803938879e-25)
(2.85433045491251e-06 1.90293780152517e-06 1.20454605684552e-25)
(3.15461848954443e-06 1.80263291249231e-06 1.37387005254573e-23)
(3.50580572249275e-06 1.56835234057903e-06 2.53294362029197e-24)
(3.98994526617766e-06 9.58797161064098e-07 1.85336046416312e-24)
(4.23235140073549e-06 1.62393584629247e-06 1.121997963246e-23)
(2.97219348793632e-06 -9.78289018029608e-07 1.64410564374452e-24)
(-4.13035349386954e-06 3.22909393960085e-05 1.99037978112947e-24)
(-2.75894106563325e-06 3.22163214724849e-05 2.03024599349209e-23)
(-3.28112846237506e-06 2.74165779350435e-05 2.1320691633461e-24)
(-2.98795856636469e-06 2.64774637771297e-05 9.18499508585889e-25)
(-2.47465195501226e-06 2.62299906496012e-05 9.51496134674318e-24)
(-2.00791697655446e-06 2.62535715208238e-05 1.1723481033422e-23)
(-1.5389758774857e-06 2.6325570608584e-05 1.10571853574028e-24)
(-1.14197652686767e-06 2.63903173812743e-05 1.41003920428835e-24)
(-8.00091126904621e-07 2.64415407260219e-05 1.46678901617292e-23)
(-5.0441395368954e-07 2.64815340084797e-05 1.23955621366387e-23)
(-2.47400725750969e-07 2.65129885858209e-05 -9.58720471481095e-24)
(-2.31417471878446e-08 2.65380398038623e-05 1.73108694798884e-24)
(1.72907861705204e-07 2.65581209837712e-05 9.13634920245738e-24)
(3.44337659531796e-07 2.65743511606636e-05 -1.14216684469502e-23)
(4.94144412902605e-07 2.65875244951765e-05 1.17601707707041e-23)
(6.24794979054043e-07 2.65981823757488e-05 1.18878076234315e-24)
(7.38366837648512e-07 2.6606768914473e-05 2.68881931988259e-24)
(8.36698229864913e-07 2.66136036996571e-05 1.31799252070422e-23)
(9.21397432678902e-07 2.66189280307169e-05 2.58286068088162e-24)
(9.93920357601609e-07 2.66229272486002e-05 1.57414831191124e-23)
(1.05562248420224e-06 2.66257491897985e-05 2.80254431883216e-24)
(1.10775536596474e-06 2.66275069677679e-05 1.37251673592389e-23)
(1.15148098079722e-06 2.66282625516934e-05 2.71386211788367e-24)
(1.18795316710833e-06 2.66281151590712e-05 1.16485478200189e-24)
(1.21827420329143e-06 2.66270826162257e-05 1.10807686397185e-23)
(1.24351697145955e-06 2.66251761933498e-05 3.78138733269105e-24)
(1.26478831164872e-06 2.66224583814622e-05 9.76432063281483e-24)
(1.28316745381042e-06 2.66189296914484e-05 -1.24252183425226e-23)
(1.29971709187884e-06 2.6614501084679e-05 9.48529101424771e-25)
(1.31558800952537e-06 2.6609172079155e-05 9.67740099694194e-24)
(1.33196938214438e-06 2.66028781477536e-05 -1.18090709993494e-23)
(1.350074259926e-06 2.65955044786197e-05 8.35855265579542e-24)
(1.37128798246235e-06 2.65869999853497e-05 -1.11871474733849e-23)
(1.39712401409347e-06 2.6577148480888e-05 -1.10847152585455e-23)
(1.42923857401937e-06 2.65657294465425e-05 9.93563423084684e-24)
(1.46954186732307e-06 2.65524679257595e-05 2.12304863777209e-24)
(1.52027777748172e-06 2.65369467888225e-05 -1.69949102772042e-24)
(1.58408425949764e-06 2.65186759605826e-05 -1.09123378439524e-24)
(1.66412952212755e-06 2.64969111848062e-05 -9.67928362919079e-24)
(1.76429767254319e-06 2.6470593514583e-05 1.03339865592935e-23)
(1.88948300098645e-06 2.64382562360187e-05 -2.80843098409755e-25)
(2.04591567247901e-06 2.63977698787971e-05 1.60320495062509e-25)
(2.24168757404235e-06 2.63462416563759e-05 1.41128814509633e-23)
(2.48649748322136e-06 2.62812474361133e-05 1.34001220941944e-26)
(2.79880003034742e-06 2.62098973446728e-05 -1.712322346143e-25)
(3.11092029313172e-06 2.61916650146996e-05 1.83701022979165e-23)
(3.44465319778805e-06 2.64464511161848e-05 6.32740050947598e-25)
(3.58551701966939e-06 2.73044810520013e-05 1.06136789270273e-24)
(2.96464118686952e-06 3.21305886845558e-05 2.46002695282347e-23)
(4.15643101138238e-06 3.20308012182163e-05 1.7758832105391e-26)
(-3.43390214721457e-06 2.53203131122481e-05 1.1866508062891e-24)
(-2.84662057411379e-06 2.01903442234965e-05 1.75465146570413e-23)
(-3.46392772883632e-06 1.50316611984475e-05 1.23571260306415e-24)
(-2.90937758402276e-06 1.42097450762687e-05 3.41895846522322e-25)
(-2.33921367455154e-06 1.39700761482511e-05 3.8693327396636e-24)
(-1.88705290562619e-06 1.40439414417943e-05 4.06819203300858e-24)
(-1.46390831072296e-06 1.41559567523133e-05 3.01085126192593e-25)
(-1.11176385725173e-06 1.42510045768592e-05 4.01322751612924e-25)
(-8.10201932624331e-07 1.43248914596681e-05 5.41604685176742e-24)
(-5.496313707774e-07 1.43821557919275e-05 8.27832116591513e-24)
(-3.23062909737245e-07 1.44270278393564e-05 -3.01662433006087e-24)
(-1.25254327534323e-07 1.44626143717527e-05 6.28660150289083e-24)
(4.77973057224014e-08 1.44910287342639e-05 9.28084959978881e-24)
(1.99262163762047e-07 1.4513875373649e-05 -3.89167337455945e-24)
(3.31793615963026e-07 1.45323059633996e-05 1.05746361209591e-23)
(4.4759396176383e-07 1.45471056027756e-05 7.80498504753012e-25)
(5.48514257330475e-07 1.45589136175828e-05 7.63049813252022e-24)
(6.36198775648271e-07 1.45681923933458e-05 9.60501233489202e-24)
(7.12094299968724e-07 1.45753021010982e-05 1.18287949159035e-24)
(7.77504643731328e-07 1.45805161713543e-05 1.01928139957669e-23)
(8.33625808361123e-07 1.45840526114186e-05 1.04976420772757e-24)
(8.81576969842938e-07 1.45860549807693e-05 5.14899193542379e-24)
(9.22411709570563e-07 1.45866594721486e-05 4.79273451941128e-24)
(9.57148106342656e-07 1.45859697080988e-05 5.17619924512581e-25)
(9.86775454396223e-07 1.45840237606214e-05 3.99696939198542e-24)
(1.01224634312225e-06 1.45808817660888e-05 6.61126654223333e-24)
(1.03452368740921e-06 1.45765723978491e-05 3.6245718129222e-24)
(1.05456584390075e-06 1.45710657621386e-05 -4.39400961103708e-24)
(1.0733324934713e-06 1.45643211958101e-05 4.30991129352139e-24)
(1.09183814432041e-06 1.45563053687007e-05 3.60907026327865e-24)
(1.11113756641455e-06 1.45468959409857e-05 -4.35170625722257e-24)
(1.13232761538713e-06 1.45359721289854e-05 3.00439489972905e-24)
(1.15662606530793e-06 1.45233970482571e-05 -4.51795485748329e-24)
(1.18537274996978e-06 1.45089007505795e-05 -3.84285328041669e-24)
(1.22005115151435e-06 1.44921560834336e-05 3.68229184164216e-24)
(1.26235420555685e-06 1.44727552053819e-05 4.45760927805511e-24)
(1.31428085033552e-06 1.4450098986773e-05 -4.23479177271532e-24)
(1.37815182484241e-06 1.44234828173249e-05 -4.86868805477963e-25)
(1.45673286021871e-06 1.43918346859212e-05 -3.41841624654512e-24)
(1.55343862833635e-06 1.43535960925519e-05 3.7625327135023e-24)
(1.67252367554843e-06 1.43066523266999e-05 -5.13740827557471e-24)
(1.81940247469408e-06 1.4247903700676e-05 -4.27552623983331e-24)
(2.00130293067762e-06 1.41729445151034e-05 4.2217649349257e-24)
(2.22789222931317e-06 1.40769052444643e-05 -4.31450994958549e-24)
(2.51946212481106e-06 1.39641688629725e-05 -5.35987537425382e-24)
(2.83825411022038e-06 1.38917404748779e-05 5.19469138701132e-24)
(3.25197432252734e-06 1.41261645896947e-05 -5.95313602716077e-24)
(3.71851634000241e-06 1.48610050144086e-05 -4.98271750921813e-24)
(2.98899230944861e-06 2.00765995231246e-05 8.86360078212678e-24)
(3.39497528898705e-06 2.51942404705705e-05 -8.45111761608263e-24)
(-1.65127415832595e-06 1.86023608693151e-05 2.28119209865775e-25)
(-2.99010004857815e-06 1.1517661438063e-05 4.01723971991464e-24)
(-3.54362627087191e-06 7.36050935376816e-06 2.3839119915789e-25)
(-2.76755645454027e-06 6.89997271893707e-06 -2.47533018121151e-26)
(-2.18807151532272e-06 6.80869893213574e-06 -9.8455824333818e-25)
(-1.7638641255567e-06 6.96526515359853e-06 6.13883365826476e-25)
(-1.38154595966419e-06 7.12387425619107e-06 3.66820990490617e-26)
(-1.06239517255303e-06 7.24832048056762e-06 4.72884951803012e-26)
(-7.88231604034385e-07 7.34283877280178e-06 9.02413883957676e-25)
(-5.50345898983531e-07 7.41554668725551e-06 1.49367584067069e-24)
(-3.4273817602266e-07 7.47234363300686e-06 -4.8802146999812e-25)
(-1.60945967000663e-07 7.51727728984984e-06 8.95600624777986e-25)
(-1.53055052077911e-09 7.55311584706245e-06 1.479501954612e-24)
(1.38288700112067e-07 7.58185797818083e-06 -6.53943208803437e-25)
(2.60851697480758e-07 7.60496022548575e-06 1.55558176937329e-24)
(3.6812958796033e-07 7.62344335548778e-06 1.22729449788885e-25)
(4.61807647222749e-07 7.63810063229693e-06 1.09876865662671e-24)
(5.43380564560183e-07 7.64953639901833e-06 1.63171277582161e-24)
(6.14173486075236e-07 7.65820145933748e-06 1.75940214664078e-25)
(6.75394344965674e-07 7.66444042742986e-06 1.91944089466934e-24)
(7.28148718784939e-07 7.66853562935283e-06 1.46643970492873e-25)
(7.73468390659688e-07 7.67069644819097e-06 8.48425036124499e-25)
(8.12335305674215e-07 7.6710856261375e-06 8.80611709319388e-25)
(8.45693525386826e-07 7.66982717784006e-06 8.51402819225812e-26)
(8.74458463848356e-07 7.66698399682185e-06 6.61323768887176e-25)
(8.99518693156312e-07 7.66261161092124e-06 9.08511635891859e-25)
(9.21766234356488e-07 7.65675454478638e-06 6.04757852036081e-25)
(9.42085830160184e-07 7.64937864950315e-06 -7.13304558830549e-25)
(9.61371543496469e-07 7.6404475906801e-06 8.31563738077493e-25)
(9.80565084642608e-07 7.62988705322048e-06 6.19478497759077e-25)
(1.00064006825807e-06 7.61757192482965e-06 -7.27899826886686e-25)
(1.02261963889852e-06 7.6033302295131e-06 5.26547164295665e-25)
(1.04762281677187e-06 7.5869598866361e-06 -7.82772349831754e-25)
(1.07687181411971e-06 7.56814248139137e-06 -6.08183819144522e-25)
(1.11173558649113e-06 7.54646532283245e-06 6.15914219623273e-25)
(1.15375806884995e-06 7.52139824606613e-06 8.23045677252371e-25)
(1.20474039901548e-06 7.49220899296716e-06 -7.91111479693483e-25)
(1.26676116917789e-06 7.45795705713232e-06 -7.77756601113728e-26)
(1.34226846967137e-06 7.41731539530636e-06 -4.86665876302115e-25)
(1.43423054915846e-06 7.3683180319733e-06 2.34356362581007e-24)
(1.54628457832365e-06 7.30826638333862e-06 -8.32116933161285e-25)
(1.68297762797838e-06 7.23314640385417e-06 -7.7048338436724e-25)
(1.85031521090108e-06 7.13696250209912e-06 2.25640698211888e-24)
(2.05662855281423e-06 7.01134680314875e-06 -7.85767415493482e-25)
(2.31908941533884e-06 6.85203105628565e-06 -9.60505389041852e-25)
(2.62019371433274e-06 6.69451607337246e-06 2.41482013805668e-24)
(3.0584925544652e-06 6.76445260544559e-06 -7.89496281160834e-25)
(3.77806618449429e-06 7.11175922205957e-06 -1.01317460237809e-24)
(3.1386652430553e-06 1.13236139913906e-05 3.93766655507375e-24)
(1.6334213016702e-06 1.84994712667007e-05 -2.0301208471317e-24)
(-7.71200431936156e-07 1.59515737394885e-05 5.42581036429491e-26)
(-2.72768607548645e-06 8.54690753081754e-06 8.88796617742742e-25)
(-3.23482531230761e-06 4.52147708723939e-06 5.58691849522196e-26)
(-2.53659635147066e-06 4.15601969833053e-06 9.50748377444789e-27)
(-2.02566048585149e-06 4.15062589252034e-06 4.29048256924276e-25)
(-1.65101724611191e-06 4.36144536142287e-06 5.48493577456128e-25)
(-1.31012018966651e-06 4.55615868595643e-06 2.82751410098653e-26)
(-1.01927426781364e-06 4.70491732302772e-06 2.53398276771189e-26)
(-7.66394935359701e-07 4.81708885711422e-06 5.39683680870774e-25)
(-5.45049798171044e-07 4.90324892569501e-06 6.7139906700648e-25)
(-3.50639919644618e-07 4.97057650756385e-06 -6.324964565178e-25)
(-1.79598222260123e-07 5.02386472455217e-06 1.44825996063826e-25)
(-2.90721384727649e-08 5.06638227973301e-06 6.20743031071747e-25)
(1.03329052628602e-07 5.10046611891307e-06 -4.39863282581402e-25)
(2.19660164789669e-07 5.12780796223702e-06 6.26042174165345e-25)
(3.21689282372699e-07 5.14964148200376e-06 4.04221320375191e-26)
(4.10959439137433e-07 5.16689423495742e-06 1.64035054351364e-25)
(4.88850526329344e-07 5.18027377305366e-06 6.17219477543936e-25)
(5.56593826563509e-07 5.19032819896132e-06 6.17996293814209e-26)
(6.15326388788869e-07 5.19747737364236e-06 9.42692946267704e-25)
(6.66093365152038e-07 5.20204183443528e-06 5.11869237996081e-26)
(7.09868655642676e-07 5.2042868931545e-06 6.65181034357997e-25)
(7.47588559207844e-07 5.20440550705259e-06 1.37100439723636e-25)
(7.80149534890483e-07 5.20254081369569e-06 2.52211658692714e-26)
(8.08419128075245e-07 5.19878760691321e-06 6.55107957923242e-25)
(8.33254917593392e-07 5.19321054977392e-06 1.58868065647574e-25)
(8.55496864296837e-07 5.18583987585909e-06 4.16227297789748e-25)
(8.7598759529434e-07 5.17664825432857e-06 -4.52565441701105e-25)
(8.95588731256821e-07 5.16559850427739e-06 1.25293688644876e-25)
(9.1518783894146e-07 5.15259091554293e-06 6.35957018723452e-25)
(9.35710426653212e-07 5.13747563432472e-06 -6.20810381256705e-25)
(9.58125833424212e-07 5.12005732722875e-06 6.1425309509818e-25)
(9.83488293611923e-07 5.10006770605434e-06 -6.20891241859455e-25)
(1.01294627474629e-06 5.07714674880217e-06 -6.27399526306796e-25)
(1.04777523386467e-06 5.05080567137841e-06 6.1900908704312e-25)
(1.08940840055072e-06 5.02041854968168e-06 1.32172223265996e-25)
(1.13948222674057e-06 4.98510810405713e-06 -1.1106903115428e-25)
(1.19986706122622e-06 4.94378453548121e-06 -1.97530025806063e-26)
(1.27273225522702e-06 4.89488327684892e-06 -5.8583293813912e-25)
(1.36062586422923e-06 4.83611898004894e-06 7.12298584971694e-25)
(1.46656637871996e-06 4.76434603538948e-06 -6.51118189366883e-26)
(1.59416747543907e-06 4.67488176387894e-06 -9.39828632510878e-26)
(1.74792570119134e-06 4.56061952470438e-06 8.67332174614934e-25)
(1.93377818654089e-06 4.41104088649255e-06 -9.26907830197189e-26)
(2.16276392687926e-06 4.21679087513623e-06 -8.78344616819472e-26)
(2.42285071292285e-06 4.00413298540624e-06 9.2698283420979e-25)
(2.80695404030436e-06 3.97162551983877e-06 -9.14661201891768e-26)
(3.45489830722087e-06 4.18739760143786e-06 -1.10548911175485e-25)
(2.88681795594214e-06 8.27525991694976e-06 1.43707907990309e-24)
(7.74153528994497e-07 1.57722146301943e-05 -2.76315213128705e-25)
(-4.54620411107432e-07 1.55018590747091e-05 2.80523215473455e-26)
(-2.27352403872082e-06 8.16072777519923e-06 3.93612831037739e-25)
(-2.74226410074744e-06 3.70894607847877e-06 2.8017284556827e-26)
(-2.25327916096644e-06 3.29024918294909e-06 2.2432667379447e-27)
(-1.84178064926799e-06 3.3078338265092e-06 3.0025928384608e-26)
(-1.52610635787821e-06 3.54434528804347e-06 1.09295760793771e-25)
(-1.22746738292772e-06 3.76274448445185e-06 7.23649263124668e-27)
(-9.64143996871671e-07 3.9298296754674e-06 7.20242447400843e-27)
(-7.30854397074955e-07 4.05636453727146e-06 1.1324356294023e-25)
(-5.24072385979046e-07 4.15396428940162e-06 2.81546865311185e-25)
(-3.40854050478148e-07 4.23050554529381e-06 -6.2714086982039e-26)
(-1.78643221994455e-07 4.29124669281912e-06 1.97524266266765e-25)
(-3.5228464373711e-08 4.33980112103339e-06 2.6685854498019e-25)
(9.13628189803171e-08 4.37875674937473e-06 -6.02272665140429e-26)
(2.02893532875196e-07 4.41000319326689e-06 2.37725521079517e-25)
(3.00924790245194e-07 4.43492338989826e-06 2.48462194486096e-26)
(3.86847270544545e-07 4.45457089297878e-06 2.14979289874283e-25)
(4.61934069890281e-07 4.4697439212281e-06 2.54479105306781e-25)
(5.27335547235214e-07 4.48106815381888e-06 3.03273798222556e-26)
(5.84114194066097e-07 4.48902392069203e-06 2.49692067867024e-25)
(6.33265169904123e-07 4.49399162014146e-06 1.82362791808157e-26)
(6.75719994263565e-07 4.49626428668822e-06 8.01181681044449e-26)
(7.12371611251672e-07 4.49607489531805e-06 1.28490144178751e-25)
(7.44081924764914e-07 4.49358177975343e-06 1.00420910240716e-26)
(7.71683926865993e-07 4.48890271974919e-06 8.20495874108929e-26)
(7.96002461739338e-07 4.48211188964828e-06 1.90717730585885e-25)
(8.17846662937602e-07 4.47323556071431e-06 6.17387493286265e-26)
(8.38031837346403e-07 4.4622599046524e-06 -6.31973661424441e-26)
(8.57384338843038e-07 4.44912454506703e-06 1.83763788489452e-25)
(8.76752785152413e-07 4.43372062167881e-06 7.62140705986497e-26)
(8.97028792628754e-07 4.41586953580127e-06 -6.42972135411299e-26)
(9.19135138929827e-07 4.3953552657378e-06 6.5601226136288e-26)
(9.4407112602059e-07 4.37187102009044e-06 -5.71234550835227e-26)
(9.72919950302187e-07 4.34499131351129e-06 -6.47136940683244e-26)
(1.00687591039754e-06 4.31417825282311e-06 6.86419972567549e-26)
(1.04725657817931e-06 4.27871492903023e-06 1.69987272712771e-25)
(1.09554986586576e-06 4.23761222980951e-06 -1.56487065251178e-25)
(1.15342690979785e-06 4.18966411660696e-06 -7.29202927139062e-27)
(1.22276075821359e-06 4.13311844875338e-06 -4.89619924092334e-26)
(1.30566777143377e-06 4.06546452930625e-06 1.04981131863641e-25)
(1.40452333558675e-06 3.98326237522204e-06 -1.9092951969512e-25)
(1.52193871923459e-06 3.88143618215625e-06 -1.76286229804712e-25)
(1.66075608995948e-06 3.752332254812e-06 8.64362264764169e-26)
(1.82410525357489e-06 3.58464174101593e-06 -1.63539994023476e-25)
(2.01659696670011e-06 3.36752252280378e-06 -1.61802624583179e-25)
(2.22503708342754e-06 3.12781666013436e-06 1.07238856433581e-25)
(2.52222906559654e-06 3.05755061264719e-06 -1.79833782505148e-25)
(2.95284942017331e-06 3.29085475000217e-06 -2.27200435125239e-25)
(2.43329681408052e-06 7.82197902388219e-06 1.69848974948835e-25)
(4.69186522006437e-07 1.52296217838332e-05 -4.49220554749751e-25)
(-3.3448303430332e-07 1.58188239599801e-05 1.47106139963411e-26)
(-1.82828282478351e-06 8.57183359654751e-06 1.81984500009599e-25)
(-2.25607143137377e-06 3.58600559277904e-06 1.47462072510479e-26)
(-1.96345072567712e-06 3.06455889091719e-06 -4.99099360479797e-27)
(-1.64777374312061e-06 3.06713293449925e-06 -2.67469120406361e-26)
(-1.38957949364427e-06 3.30887221490265e-06 4.55311840047262e-26)
(-1.13176083230584e-06 3.53986727965004e-06 4.32480776487903e-27)
(-8.95487668402074e-07 3.71929795249968e-06 5.16806916935517e-27)
(-6.81282226970421e-07 3.85671950814743e-06 6.55414885919166e-26)
(-4.88499262418093e-07 3.96360627173201e-06 1.02020080052299e-25)
(-3.15875564890718e-07 4.04795573515939e-06 -4.17432239701109e-26)
(-1.61897443861213e-07 4.11519289660143e-06 4.21880936778179e-26)
(-2.50178682771978e-08 4.16912328099712e-06 8.18258019154419e-26)
(9.62982021664917e-08 4.21248447797254e-06 -3.72913614573449e-26)
(2.03501031543718e-07 4.24729718629048e-06 8.17138703781493e-26)
(2.97935072224324e-07 4.27505550291062e-06 1.00223809481534e-26)
(3.80841980658376e-07 4.29690994474862e-06 4.4142984089103e-26)
(4.53377473507264e-07 4.31374121609035e-06 8.53899404269612e-26)
(5.16603104223851e-07 4.32623613576092e-06 1.24579480055104e-26)
(5.71521339243737e-07 4.33493082417223e-06 6.95310765971455e-26)
(6.1907073833594e-07 4.34024922884767e-06 7.95900939606285e-27)
(6.60135146570957e-07 4.34251777360353e-06 3.21097641478947e-26)
(6.95573838234084e-07 4.34200292397362e-06 2.37957657755498e-26)
(7.26215210859032e-07 4.33887670564685e-06 3.78336846312272e-27)
(7.52862807508509e-07 4.33327861616063e-06 3.48454270007511e-26)
(7.76311409482245e-07 4.32528945441945e-06 3.40091602847679e-26)
(7.97342758707915e-07 4.31494165049992e-06 2.81672947503592e-26)
(8.1674290091356e-07 4.3022217584459e-06 -2.61336248142455e-26)
(8.35312335396045e-07 4.28704810704437e-06 2.84224839657467e-26)
(8.53864930862775e-07 4.26931459393726e-06 2.3152135493442e-26)
(8.73255189624021e-07 4.24881080473385e-06 -1.95684401928477e-26)
(8.94368335574106e-07 4.22530396927103e-06 1.69930386950443e-26)
(9.18144164406923e-07 4.19845377038528e-06 -2.70297431913954e-26)
(9.45606764163321e-07 4.16778678422836e-06 -2.70088241540806e-26)
(9.77866544419389e-07 4.13270643173448e-06 2.62761402600452e-26)
(1.01612761706377e-06 4.09243323514614e-06 2.61038334790777e-26)
(1.06172909427346e-06 4.04590940290638e-06 -1.94658094376403e-26)
(1.11612797593645e-06 3.99181627524492e-06 -1.9050026131112e-27)
(1.18090000350129e-06 3.92829026447044e-06 -6.02119026114063e-27)
(1.25772625786804e-06 3.85269857903574e-06 9.19594175913241e-26)
(1.34832211182948e-06 3.76145442461214e-06 -2.12609914638375e-26)
(1.45428875136477e-06 3.6493667894796e-06 -2.25077017491191e-26)
(1.57685731517916e-06 3.50875674619556e-06 5.68200013557434e-26)
(1.71646236428913e-06 3.32856833801551e-06 -1.87996148553333e-26)
(1.87236012696924e-06 3.09892846872799e-06 -1.66200315760299e-26)
(2.02919591325924e-06 2.85200434189831e-06 7.22092167028561e-26)
(2.24025927195818e-06 2.78468650009054e-06 -2.08928188104262e-26)
(2.46158388902008e-06 3.09046762716402e-06 -3.11071001067808e-26)
(1.98260238816312e-06 8.17088927231578e-06 5.90687011793716e-26)
(3.56200176227336e-07 1.54629428467037e-05 -5.30872534402612e-26)
(-2.7271887413007e-07 1.63084734477242e-05 2.46715651923321e-26)
(-1.45969311127528e-06 9.13440819748315e-06 1.54358499556825e-25)
(-1.84270561407425e-06 3.68708392834005e-06 2.49429560151763e-26)
(-1.69138558616977e-06 3.05586988896715e-06 1.21178752441861e-26)
(-1.45597015977867e-06 3.02515355748696e-06 7.8250924719e-26)
(-1.24850336774115e-06 3.25895867887895e-06 8.33432744006185e-26)
(-1.02822610992399e-06 3.4937850723764e-06 1.29576205888392e-26)
(-8.17964001594376e-07 3.68023906013915e-06 1.49616098621554e-26)
(-6.22466497122e-07 3.82523108613575e-06 1.13542009183974e-25)
(-4.43538298203232e-07 3.93926445853795e-06 9.85465910874148e-26)
(-2.81448748434853e-07 4.02999377013959e-06 -7.83077229190269e-26)
(-1.35665616661172e-07 4.10275973036076e-06 3.3520068547479e-27)
(-5.28601381719455e-09 4.16138445010856e-06 4.77452393646897e-26)
(1.10779695720888e-07 4.20866801241939e-06 -7.55887942014488e-26)
(2.13670323928633e-07 4.2467016065898e-06 1.04556027511035e-25)
(3.04513350584072e-07 4.27705241843639e-06 1.35477434416154e-26)
(3.84390663888092e-07 4.30093490056089e-06 1.74168596869499e-26)
(4.54340431335396e-07 4.31929986972085e-06 7.44367397205244e-26)
(5.15337143448568e-07 4.33287015316124e-06 1.91492665325051e-26)
(5.6830771682934e-07 4.34224762188236e-06 6.65413383014023e-26)
(6.14137637145325e-07 4.34787625295047e-06 1.5146958970251e-26)
(6.53671778337203e-07 4.3501248954891e-06 5.36395261559385e-26)
(6.87724359440047e-07 4.34927342567314e-06 9.43027618403593e-27)
(7.17094008162127e-07 4.34552522454149e-06 8.3684409390464e-27)
(7.42552984525544e-07 4.33903385251534e-06 6.10616226326773e-26)
(7.6486263569607e-07 4.32988192567485e-06 1.8762718492813e-26)
(7.84785293447023e-07 4.31810167885207e-06 4.80474809393319e-26)
(8.03074095094653e-07 4.30368566310401e-06 -4.67244719532588e-26)
(8.20502025796734e-07 4.28655348500704e-06 2.10429069875866e-27)
(8.37855026513221e-07 4.26657202622013e-06 2.90005375537366e-26)
(8.55938686550815e-07 4.24352650102592e-06 -3.1620005906547e-26)
(8.75601734352863e-07 4.21715410414422e-06 2.19846370049962e-26)
(8.97740717769506e-07 4.18708178512061e-06 -5.39042448744506e-26)
(9.23298377092979e-07 4.15280687626115e-06 -4.84418234835424e-26)
(9.53304040236616e-07 4.11369421077108e-06 3.92727729743929e-26)
(9.88857478641235e-07 4.06891402741133e-06 9.1706415671156e-27)
(1.03113277861917e-06 4.01734770412886e-06 -2.54753850179466e-27)
(1.08137708642246e-06 3.95762529882931e-06 -2.86108713119352e-27)
(1.14087777531817e-06 3.88782671281412e-06 -1.97538959322037e-26)
(1.2108767757008e-06 3.8052829125924e-06 6.1842692443079e-26)
(1.29245693328139e-06 3.70640846259757e-06 4.19913714789957e-27)
(1.3862805727151e-06 3.58613583210186e-06 9.79602649256898e-28)
(1.49214400617667e-06 3.43718052699692e-06 4.13318223508786e-26)
(1.60821175050792e-06 3.24946455455904e-06 1.27592808952715e-27)
(1.72985888743587e-06 3.01544412858577e-06 3.55267627559615e-27)
(1.84055322998395e-06 2.77412465890044e-06 5.63950349327875e-26)
(1.97824449497442e-06 2.73066298993951e-06 3.46553355349955e-27)
(2.0460789025463e-06 3.12236049728517e-06 4.15781379625341e-27)
(1.60766073436943e-06 8.67239029487628e-06 2.99188332704525e-26)