/*--------------------------------*- C++ -*----------------------------------*\
  =========                 |
  \\      /  F ield         | OpenFOAM: The Open Source CFD Toolbox
   \\    /   O peration     | Website:  https://openfoam.org
    \\  /    A nd           | Version:  10
     \\/     M anipulation  |
\*---------------------------------------------------------------------------*/
FoamFile
{
    format      ascii;
    class       volScalarField;
    location    "1.4";
    object      wallHeatFlux;
}
// * * * * * * * * * * * * * * * * * * * * * * * * * * * * * * * * * * * * * //

dimensions      [1 0 -3 0 0 0 0];

internalField   uniform 0;

boundaryField
{
    back
    {
        type            calculated;
        value           uniform 0;
    }
    bottom
    {
        type            calculated;
        value           nonuniform List<scalar> 
50
(
499.254309169877
525.016370291192
531.775339897961
532.909859737156
533.083939515046
533.111032517113
533.115142835622
533.115373188004
533.114950299205
533.114764251176
533.114363637086
533.114113890798
533.113964859261
533.113748431294
533.113561335657
533.113330696063
533.113239413083
533.113103380372
533.112936449972
533.112835737746
533.112782672091
533.112843877506
533.11291049422
533.112793505135
533.112660323472
533.112677403519
533.112631632769
533.112618467899
533.112703631233
533.112598902142
533.112523579236
533.112567095874
533.112568697962
533.112560506511
533.11255681786
533.112622440139
533.112710764876
533.11277313066
533.112940695031
533.113085444865
533.113250759578
533.113418284547
533.113458147843
533.112478786921
533.106697088181
533.073450635142
532.885866506075
531.736098053903
524.870873601806
499.232997600922
)
;
    }
    left
    {
        type            calculated;
        value           uniform 0;
    }
    front
    {
        type            calculated;
        value           uniform 0;
    }
    right
    {
        type            calculated;
        value           uniform 0;
    }
    top
    {
        type            calculated;
        value           uniform 0;
    }
}


// ************************************************************************* //
