/*--------------------------------*- C++ -*----------------------------------*\
  =========                 |
  \\      /  F ield         | OpenFOAM: The Open Source CFD Toolbox
   \\    /   O peration     | Website:  https://openfoam.org
    \\  /    A nd           | Version:  10
     \\/     M anipulation  |
\*---------------------------------------------------------------------------*/
FoamFile
{
    format      ascii;
    class       volScalarField;
    location    "8.2";
    object      alphat;
}
// * * * * * * * * * * * * * * * * * * * * * * * * * * * * * * * * * * * * * //

dimensions      [1 -1 -1 0 0 0 0];

internalField   nonuniform List<scalar> 
2500
(
6.04238687107514e-15
1.18960404487415e-13
5.09932377839521e-13
8.89308630111526e-13
1.22355334891918e-12
1.50068496567742e-12
1.71749918225601e-12
1.87772614114157e-12
1.98970499298926e-12
2.06381416217482e-12
2.11032891838731e-12
2.13806118098247e-12
2.15379294944163e-12
2.16229848218951e-12
2.16668869473168e-12
2.16885557402524e-12
2.1698798075772e-12
2.17034404523798e-12
2.17054596995864e-12
2.17063023562588e-12
2.17066389573339e-12
2.17067667238276e-12
2.17068119106848e-12
2.17068259063444e-12
2.17068284912874e-12
2.17068258467967e-12
2.17068170246527e-12
2.17067934545881e-12
2.17067304736473e-12
2.17065668679058e-12
2.17061570548628e-12
2.17051679797503e-12
2.17028676234486e-12
2.1697713224712e-12
2.16865955023915e-12
2.16635386940722e-12
2.16176286873542e-12
2.15299988090439e-12
2.13699297627277e-12
2.10905987956417e-12
2.06257375327517e-12
1.98892617707328e-12
1.87803861271442e-12
1.71962382440453e-12
1.50520518324633e-12
1.23057755403635e-12
8.98066606871233e-13
5.18274343947007e-13
1.22293948364571e-13
6.30900657907493e-15
6.00245973737879e-13
3.0997329299699e-11
1.3563513160501e-10
2.36698318629472e-10
3.25840467455969e-10
3.99895971894094e-10
4.57977806497122e-10
5.01028393770017e-10
5.31218342933586e-10
5.51274745280667e-10
5.63915612709228e-10
5.71485783194498e-10
5.75800384248128e-10
5.78144593968872e-10
5.79360736785082e-10
5.7996412262754e-10
5.80250849196631e-10
5.80381511253675e-10
5.80438658600163e-10
5.80462644379786e-10
5.80472285201683e-10
5.8047597160519e-10
5.80477288742555e-10
5.80477704391894e-10
5.80477786677167e-10
5.80477714303786e-10
5.80477459814413e-10
5.80476778050035e-10
5.80474964700546e-10
5.80470279793828e-10
5.80458606638752e-10
5.80430577378423e-10
5.80365711649385e-10
5.8022108120956e-10
5.79910636999727e-10
5.79269913931774e-10
5.78000195887322e-10
5.75587955678211e-10
5.71201671018886e-10
5.63580899831399e-10
5.50951562515622e-10
5.31021903371469e-10
5.01124302205623e-10
4.58553601917887e-10
4.0110100409592e-10
3.27698165818538e-10
2.39002067229184e-10
1.37819877895258e-10
3.18491863260987e-11
6.257678167015e-13
2.13506333455387e-12
5.5851877417078e-10
1.92207218394068e-07
3.34932102182782e-07
4.6010574420104e-07
5.63778029401571e-07
6.44948621838144e-07
7.05081976158312e-07
7.47275507764893e-07
7.75347954550136e-07
7.93080350320912e-07
8.03729331354759e-07
8.09818301107426e-07
8.13138336751073e-07
8.14867285415424e-07
8.15728533009454e-07
8.1613949979461e-07
8.16327587139281e-07
8.16410219439652e-07
8.16445066486824e-07
8.16459146355402e-07
8.16464564238593e-07
8.16466517324394e-07
8.164671436194e-07
8.16467274917182e-07
8.16467174438099e-07
8.16466803823975e-07
8.1646580768651e-07
8.16463166669116e-07
8.1645636941898e-07
8.16439493806725e-07
8.16399109647122e-07
8.16305957045149e-07
8.16098922426722e-07
8.15655942637358e-07
8.1474455525994e-07
8.12944047475639e-07
8.09533685788774e-07
8.03350261482267e-07
7.92635629911073e-07
7.74920502196133e-07
7.4701772477576e-07
7.05211844901433e-07
6.45712389358497e-07
5.65371642893881e-07
4.62559323607294e-07
3.37970694698605e-07
1.95078923748249e-07
5.72538487315657e-10
2.21240274822677e-12
3.78845855295967e-12
9.98029421816929e-10
3.44799101085755e-07
5.98936199625579e-07
8.20587004086293e-07
1.00337671238911e-06
1.14603098373839e-06
1.25147529008293e-06
1.32535865994998e-06
1.37448133724613e-06
1.40550648025606e-06
1.42414390229312e-06
1.43480726233923e-06
1.44062658793889e-06
1.44366030881034e-06
1.44517336251495e-06
1.44589634429477e-06
1.44622772985273e-06
1.44637355810268e-06
1.44643516947367e-06
1.44646011713896e-06
1.44646974322662e-06
1.44647322728719e-06
1.44647435297748e-06
1.44647459630463e-06
1.44647442709484e-06
1.44647378631223e-06
1.44647205521624e-06
1.44646746101033e-06
1.44645562865882e-06
1.44642623172292e-06
1.44635583450983e-06
1.44619334523033e-06
1.44583199355435e-06
1.44505843024167e-06
1.44346619755418e-06
1.4403194655595e-06
1.43435730224871e-06
1.42354388376729e-06
1.40480011068799e-06
1.3737959713105e-06
1.3249289884015e-06
1.25163731089377e-06
1.14716439495203e-06
1.00578299379576e-06
8.2430829689916e-07
6.03535015839403e-07
3.49098063153925e-07
1.01852478042837e-09
3.89939392144144e-12
5.42534375144847e-12
1.43003034659009e-09
4.9309962515803e-07
8.53988826874811e-07
1.1672547127741e-06
1.42464095993065e-06
1.62495910074079e-06
1.7727436273476e-06
1.8761716959734e-06
1.94489725415478e-06
1.98829817893403e-06
2.01437639179393e-06
2.02930481841197e-06
2.03745777412689e-06
2.04171196553779e-06
2.04383599388813e-06
2.04485214529028e-06
2.04531853672416e-06
2.04552408493897e-06
2.04561107731682e-06
2.04564637509516e-06
2.04566003177872e-06
2.04566499500291e-06
2.04566661105837e-06
2.04566697024883e-06
2.04566674375469e-06
2.04566585991512e-06
2.04566345726851e-06
2.04565707425992e-06
2.04564062401558e-06
2.04559972410244e-06
2.04550170470718e-06
2.04527528671955e-06
2.04477140918045e-06
2.04369203830707e-06
2.04146908977603e-06
2.03707367628353e-06
2.02874194265317e-06
2.01362473955413e-06
1.98740995713341e-06
1.94402677323334e-06
1.87560408895732e-06
1.77288721907869e-06
1.6262748478996e-06
1.42749320695312e-06
1.17168898014749e-06
8.59462891261722e-07
4.98184549355513e-07
1.45424089807955e-09
5.55755114964422e-12
7.00150630011908e-12
1.84565578794501e-09
6.34755540079296e-07
1.09628028983316e-06
1.49521731840399e-06
1.82192881011278e-06
2.07559632257549e-06
2.2624359482475e-06
2.39306852211137e-06
2.47983055158624e-06
2.53461867700802e-06
2.56754772172743e-06
2.58640748144418e-06
2.59671473180445e-06
2.60209768459146e-06
2.60478798846741e-06
2.60607652119346e-06
2.60666868860375e-06
2.60693004706238e-06
2.60704084543674e-06
2.60708589536246e-06
2.60710337375309e-06
2.60710975350856e-06
2.60711184797453e-06
2.60711232603575e-06
2.60711205380326e-06
2.607110952909e-06
2.60710794016755e-06
2.60709993002263e-06
2.60707927770033e-06
2.60702790170225e-06
2.60690469520403e-06
2.60661990475829e-06
2.60598571246377e-06
2.60462638026356e-06
2.60182536437429e-06
2.59628435489083e-06
2.58577676804993e-06
2.56670452494087e-06
2.53361893457682e-06
2.47884178655136e-06
2.3924008522498e-06
2.26253319126793e-06
2.07695844925051e-06
1.82494887493664e-06
1.49993967741209e-06
1.10211199044876e-06
6.40164582629398e-07
1.8717026129958e-09
7.14654406668868e-12
8.4899034853874e-12
2.23820260767298e-09
7.6781971956208e-07
1.32275091531354e-06
1.80063616465206e-06
2.19089196896349e-06
2.49327673597157e-06
2.71569418180594e-06
2.87107612829485e-06
2.9742393586226e-06
3.03938464387522e-06
3.07854962628852e-06
3.10099216747745e-06
3.11326577049119e-06
3.1196809304957e-06
3.12289018135468e-06
3.12442893568304e-06
3.12513696299408e-06
3.12544989311006e-06
3.12558277181493e-06
3.12563691025704e-06
3.12565797451166e-06
3.12566569804045e-06
3.12566825587583e-06
3.12566885527165e-06
3.12566854833747e-06
3.12566725475742e-06
3.12566369173558e-06
3.1256542138585e-06
3.12562977311887e-06
3.12556895002696e-06
3.12542301197928e-06
3.12508548310361e-06
3.1243334189918e-06
3.12272057905564e-06
3.1193955968374e-06
3.1128153038761e-06
3.10033230869544e-06
3.0776670320391e-06
3.03833572738434e-06
2.97319451956207e-06
2.87035081991362e-06
2.71573894187966e-06
2.4945973362109e-06
2.19388335366935e-06
1.80533860124594e-06
1.32856459627787e-06
7.73223194543783e-07
2.2647562976878e-09
8.64160227542342e-12
9.87140959408533e-12
2.60276536790401e-09
8.90854158626161e-07
1.53123194213537e-06
2.08088579051842e-06
2.52864483704059e-06
2.87497859860294e-06
3.12943000364726e-06
3.30707454287244e-06
3.42498798034155e-06
3.49945154616157e-06
3.54423188643188e-06
3.56990474184144e-06
3.58395406902091e-06
3.59130311693569e-06
3.59498289151067e-06
3.59674906858917e-06
3.59756268782337e-06
3.59792276770837e-06
3.5980759104609e-06
3.59813843116533e-06
3.59816282632863e-06
3.59817181274963e-06
3.59817481613298e-06
3.59817553880632e-06
3.59817520685303e-06
3.59817374285718e-06
3.59816968696102e-06
3.59815889599735e-06
3.59813107087674e-06
3.59806181086819e-06
3.59789556262258e-06
3.59751087311273e-06
3.59665330013585e-06
3.59481332092382e-06
3.59101845497619e-06
3.58350542829101e-06
3.56924838286924e-06
3.54335452054022e-06
3.49840821377163e-06
3.42394478846752e-06
3.30633803021777e-06
3.12943615051912e-06
2.87621411578866e-06
2.53148621372812e-06
2.08536643590989e-06
1.53677635401598e-06
8.96029948345922e-07
2.62890349282575e-09
1.00252352442071e-11
1.11334268405087e-11
2.93608498010982e-09
1.00293900678304e-06
1.72043027360841e-06
2.33450473161361e-06
2.83368282958805e-06
3.21921633661948e-06
3.50219768666316e-06
3.69965680384034e-06
3.8306987269864e-06
3.91346060066806e-06
3.9632465072761e-06
3.9918026939446e-06
4.00743957693893e-06
4.01562513007153e-06
4.01972726978468e-06
4.02169808705124e-06
4.02260698088062e-06
4.02300973875708e-06
4.02318129449119e-06
4.02325147036823e-06
4.02327893002211e-06
4.0232890923904e-06
4.02329252029925e-06
4.02329336687783e-06
4.02329301899274e-06
4.02329140471013e-06
4.02328691031054e-06
4.02327495390005e-06
4.02324413183335e-06
4.02316740694165e-06
4.02298318585498e-06
4.02255673629051e-06
4.02160565823038e-06
4.01956420746915e-06
4.01535222303702e-06
4.00701062618273e-06
3.99117673027884e-06
3.96241178719929e-06
3.91247018113367e-06
3.82971007718406e-06
3.69895813483336e-06
3.50219586507862e-06
3.22036160375265e-06
2.83631846954813e-06
2.33865398777562e-06
1.72556049502381e-06
1.00775418004871e-06
2.96121218731946e-09
1.12861810327539e-11
1.22690557065808e-11
3.23636234108273e-09
1.10362007297747e-06
1.88981757219605e-06
2.56102718421347e-06
3.10566566033675e-06
3.5257867156693e-06
3.83391368846879e-06
4.04883053049888e-06
4.19144185847233e-06
4.2815215546116e-06
4.33572628175697e-06
4.36683133095932e-06
4.38387393641646e-06
4.39280159892136e-06
4.39727925063712e-06
4.39943244849377e-06
4.40042648662806e-06
4.40086750629004e-06
4.40105563392265e-06
4.40113273499168e-06
4.40116298773842e-06
4.40117423489018e-06
4.40117806296273e-06
4.40117903268235e-06
4.4011786770684e-06
4.40117693089784e-06
4.40117204904567e-06
4.40115906636432e-06
4.40112561326852e-06
4.40104234356304e-06
4.40084236701828e-06
4.40037929246157e-06
4.39934614858911e-06
4.39712773778349e-06
4.39254911726146e-06
4.38347877058796e-06
4.36625727182266e-06
4.33496477454333e-06
4.28062407310584e-06
4.19055527018947e-06
4.04821942820758e-06
3.83394701917637e-06
3.52686720913227e-06
3.10809334835514e-06
2.56481114724694e-06
1.89447557920802e-06
1.10801412383498e-06
3.26015113396264e-09
1.24186679342808e-11
1.32762449794421e-11
3.50303987074378e-09
1.19283434687302e-06
2.03949197562686e-06
2.76078791653062e-06
3.34517670209203e-06
3.79549419556426e-06
4.12555797893623e-06
4.35570305241812e-06
4.50841025922547e-06
4.60488089884616e-06
4.66294918158068e-06
4.69628600682151e-06
4.71456154262352e-06
4.72414135218218e-06
4.728949711132e-06
4.73126391924222e-06
4.73233333170447e-06
4.73280833103841e-06
4.73301123350443e-06
4.73309454075558e-06
4.7331273154077e-06
4.7331395537677e-06
4.73314375492329e-06
4.73314484515978e-06
4.7331444885606e-06
4.73314262789617e-06
4.73313740625426e-06
4.73312352721884e-06
4.73308778459143e-06
4.73299882944036e-06
4.73278517150819e-06
4.73229028345613e-06
4.73118581156534e-06
4.72881348870129e-06
4.72391577417528e-06
4.71421081203024e-06
4.69578038654741e-06
4.66228500054305e-06
4.60410920091987e-06
4.50766723193677e-06
4.35522771168331e-06
4.12567723619564e-06
3.79655744053757e-06
3.34743452779402e-06
2.76423073537069e-06
2.0436868966569e-06
1.19680321902346e-06
3.52537772048228e-09
1.34215855544167e-11
1.41569422172176e-11
3.7365863092192e-09
1.2708365614198e-06
2.17004928830134e-06
2.93474714139413e-06
3.55351207018117e-06
4.029913934756e-06
4.37891890952474e-06
4.62221417498103e-06
4.78364443766595e-06
4.88564208048275e-06
4.9470557398813e-06
4.98232790263648e-06
5.00167445628278e-06
5.01182188130166e-06
5.01691871149245e-06
5.01937370983161e-06
5.02050921276476e-06
5.02101410197253e-06
5.02123005193333e-06
5.02131886818898e-06
5.02135389824279e-06
5.02136703351148e-06
5.02137157873681e-06
5.02137278495693e-06
5.02137243290518e-06
5.0213704738831e-06
5.0213649567189e-06
5.02135030160857e-06
5.02131258491322e-06
5.02121873783714e-06
5.02099331511039e-06
5.02047106535564e-06
5.01930521478155e-06
5.01680036594483e-06
5.01162772911169e-06
5.00137571200728e-06
4.98190271771842e-06
4.94650696863129e-06
4.88502197949853e-06
4.78307981891916e-06
4.62191905579781e-06
4.37917768419912e-06
4.03102091461753e-06
3.55566532446946e-06
2.93791374355988e-06
2.17383843900433e-06
1.27441757172509e-06
3.75752527021426e-09
1.42976371131504e-11
1.49162984797885e-11
3.9382983959425e-09
1.33813347363114e-06
2.282472175906e-06
3.08434386709733e-06
3.73250722165659e-06
4.23119938031238e-06
4.59638782729685e-06
4.850922248024e-06
5.01981316181811e-06
5.12654280867566e-06
5.19082439429809e-06
5.22775825957325e-06
5.24802603489419e-06
5.25866265960231e-06
5.26400865935428e-06
5.2665855658331e-06
5.26777845410068e-06
5.26830937962645e-06
5.26853673955011e-06
5.26863039833081e-06
5.26866742570318e-06
5.26868136442323e-06
5.26868622349535e-06
5.26868753959993e-06
5.26868719637524e-06
5.26868515379964e-06
5.26867938199837e-06
5.26866406127913e-06
5.26862465910127e-06
5.26852664499236e-06
5.26829120849129e-06
5.26774566769695e-06
5.26652754634273e-06
5.26390977211212e-06
5.25850274132306e-06
5.24778408429152e-06
5.22742142367522e-06
5.19040354464414e-06
5.12609329883717e-06
5.01945464144171e-06
4.85084610297975e-06
4.59683810108743e-06
4.2324166225264e-06
3.73463632513942e-06
3.08732410898769e-06
2.28594374797553e-06
1.34139150675264e-06
3.9580073773641e-09
1.50525459600813e-11
1.55619290045908e-11
4.11011645018161e-09
1.39542451025881e-06
2.3780329970074e-06
3.21136986402664e-06
3.88438999794315e-06
4.40192075725488e-06
4.78078778556386e-06
5.04482650944698e-06
5.2200317858514e-06
5.33077093050643e-06
5.39748592137914e-06
5.43583199795971e-06
5.45688410931052e-06
5.46793808867221e-06
5.47349714153081e-06
5.47617854503333e-06
5.4774207600314e-06
5.47797413783034e-06
5.47821137575623e-06
5.47830924852664e-06
5.47834802681962e-06
5.47836267783417e-06
5.47836782000841e-06
5.47836923868465e-06
5.47836890742433e-06
5.47836679477555e-06
5.47836080584873e-06
5.47834492010535e-06
5.47830409382607e-06
5.47820256774279e-06
5.47795869914112e-06
5.47739354612532e-06
5.47613139234901e-06
5.47341843922678e-06
5.46781374289471e-06
5.45670137923322e-06
5.43558781806681e-06
5.39720044288817e-06
5.33050451433565e-06
5.21989962197388e-06
5.04500084294663e-06
4.78147624653222e-06
4.4033135901882e-06
3.88658011595463e-06
3.21426484185862e-06
2.38129105322958e-06
1.39843989846905e-06
4.12883765307232e-09
1.56943249706126e-11
1.61032152648221e-11
4.25444826566175e-09
1.44354624230098e-06
2.45820470627775e-06
3.31785560868171e-06
4.01164878836671e-06
4.54492099768165e-06
4.93522130271551e-06
5.20720954011047e-06
5.38770136130313e-06
5.50180150067003e-06
5.57055930283278e-06
5.61009290057815e-06
5.63180579467635e-06
5.64321211452538e-06
5.64895144250238e-06
5.65172148901953e-06
5.65300566493522e-06
5.65357820430725e-06
5.65382390570425e-06
5.65392540762014e-06
5.65396570485759e-06
5.65398098062284e-06
5.65398637527419e-06
5.65398788834427e-06
5.65398757118986e-06
5.65398540063758e-06
5.6539792287178e-06
5.65396286867902e-06
5.65392085257352e-06
5.65381639990172e-06
5.65356551141369e-06
5.65298403146219e-06
5.65168520707626e-06
5.64889294577697e-06
5.64312345510965e-06
5.63168270144766e-06
5.60994257795117e-06
5.57041215899399e-06
5.50172466839565e-06
5.38780841512017e-06
5.20765763770629e-06
4.9361866247898e-06
4.54654830052095e-06
4.01398154700507e-06
3.32076659289191e-06
2.46135691894165e-06
1.44640468035431e-06
4.2724595048656e-09
1.62325959587014e-11
1.65506450317991e-11
4.37400024208314e-09
1.48341978436468e-06
2.52457750828889e-06
3.40596438705387e-06
4.11691066379215e-06
4.6631828896703e-06
5.06293015227745e-06
5.34149225303105e-06
5.52636058266583e-06
5.64324685794722e-06
5.71370069374443e-06
5.75422194815741e-06
5.77648547875283e-06
5.78818603308646e-06
5.79407625753476e-06
5.79692069156604e-06
5.79824018091642e-06
5.7988288991908e-06
5.79908177498177e-06
5.79918636914315e-06
5.79922797001093e-06
5.79924378778661e-06
5.799249405047e-06
5.79925100383535e-06
5.79925070212136e-06
5.79924848456608e-06
5.79924216043785e-06
5.79922540712826e-06
5.79918240891701e-06
5.79907554685343e-06
5.7988188846248e-06
5.79822397641838e-06
5.79689497967375e-06
5.79403742768781e-06
5.78813219313198e-06
5.77642080420424e-06
5.75416410548797e-06
5.71369101180067e-06
5.64336073780976e-06
5.5267127020092e-06
5.34222885306745e-06
5.06420135340548e-06
4.66509349704555e-06
4.11945816835292e-06
3.40898460213351e-06
2.52772586531422e-06
1.48620450118449e-06
4.39158450524707e-09
1.66779545379431e-11
1.69152028849424e-11
4.47161953241341e-09
1.51600195814482e-06
2.57878209897669e-06
3.47789518139745e-06
4.20282984312373e-06
4.75970757686784e-06
5.1671671367351e-06
5.45110124346052e-06
5.63955031015837e-06
5.75871939831995e-06
5.83056515068642e-06
5.87189844660536e-06
5.89461561706002e-06
5.90655910905928e-06
5.91257422170612e-06
5.91548038369014e-06
5.91682926218698e-06
5.9174314900624e-06
5.91769038060951e-06
5.91779758064085e-06
5.91784028805763e-06
5.91785657084125e-06
5.91786238213926e-06
5.9178640577904e-06
5.91786377219772e-06
5.91786151731064e-06
5.91785506845488e-06
5.91783799348579e-06
5.91779419535071e-06
5.91768537572143e-06
5.91742402664202e-06
5.91681821750777e-06
5.91546471534152e-06
5.91255410202911e-06
5.90653847955107e-06
5.89460688445246e-06
5.87192967348907e-06
5.83068893608498e-06
5.75902056877947e-06
5.64014705477432e-06
5.4521328476175e-06
5.16876301602421e-06
4.76193833914106e-06
4.20565099483912e-06
3.48110442052972e-06
2.58201657850863e-06
1.51878820016676e-06
4.48904247359141e-09
1.70413901855637e-11
1.72078308446437e-11
4.550152966702e-09
1.54224179852541e-06
2.62242169793784e-06
3.53579691738937e-06
4.27198931066896e-06
4.8374073950595e-06
5.25108295306707e-06
5.53935169446707e-06
5.7306939236916e-06
5.85171033757413e-06
5.92468443676525e-06
5.96667727744674e-06
5.98976367456559e-06
6.00190535250062e-06
6.00802260165938e-06
6.01097938354747e-06
6.01235243510219e-06
6.01296581294333e-06
6.01322968805824e-06
6.01333905902063e-06
6.0133826950514e-06
6.01339937226949e-06
6.01340535078287e-06
6.01340709455156e-06
6.01340682526087e-06
6.01340454153707e-06
6.01339799224452e-06
6.01338065826949e-06
6.01333621835889e-06
6.0132258316996e-06
6.01296073344601e-06
6.0123462023804e-06
6.01097308051838e-06
6.00801995154683e-06
6.00191581186711e-06
5.98980751763448e-06
5.96679268279149e-06
5.92493533385573e-06
5.85219177290725e-06
5.73152958904653e-06
5.54067745301047e-06
5.2530125134352e-06
4.8399827623254e-06
4.27512824600147e-06
3.53925878231159e-06
2.62581671048324e-06
1.54509351056207e-06
4.56764830208216e-09
1.73337779225977e-11
1.74389766075062e-11
4.61232781991999e-09
1.56304384257769e-06
2.65701495062851e-06
3.58169658935949e-06
4.32681842451109e-06
4.89901612985909e-06
5.31763141671591e-06
5.60934923650443e-06
5.80299699717749e-06
5.92548801180707e-06
5.99936448885875e-06
6.04188587855074e-06
6.06526883332285e-06
6.07757007917244e-06
6.08376977961259e-06
6.0867675423733e-06
6.08816022583216e-06
6.08878269149022e-06
6.08905064666184e-06
6.08916180432588e-06
6.08920621038781e-06
6.08922321828841e-06
6.08922933927864e-06
6.08923114276096e-06
6.08923088958367e-06
6.08922858441081e-06
6.08922195593603e-06
6.08920441727689e-06
6.0891594716439e-06
6.08904785243975e-06
6.08877980636429e-06
6.0881584138315e-06
6.08676984245459e-06
6.08378319846686e-06
6.07760920842909e-06
6.06536134896364e-06
6.04207963333421e-06
5.9997345596492e-06
5.92614011437761e-06
5.80406186178039e-06
5.61096229199508e-06
5.31989510034106e-06
4.90194901650708e-06
4.33030475837283e-06
3.58545797932598e-06
2.66062817401972e-06
1.56601228277685e-06
4.63008992686594e-09
1.7565456025837e-11
1.76182383769159e-11
4.66065713596891e-09
1.57923896125362e-06
2.68395076579954e-06
3.61744254431965e-06
4.36952796821949e-06
4.94701828927591e-06
5.36949475090863e-06
5.66391255370701e-06
5.8593681472379e-06
5.98301761124993e-06
6.05760446892621e-06
6.1005428931276e-06
6.12416041347145e-06
6.13658820734449e-06
6.14285348511539e-06
6.14588394347146e-06
6.14729234344557e-06
6.14792211263886e-06
6.14819336188325e-06
6.14830597050407e-06
6.14835100693658e-06
6.14836828871291e-06
6.14837452974304e-06
6.14837638506428e-06
6.14837614756046e-06
6.14837382730431e-06
6.1483671380998e-06
6.14834944152558e-06
6.14830410646382e-06
6.14819153934306e-06
6.14792122568674e-06
6.14729454894525e-06
6.14589406097487e-06
6.14288152400016e-06
6.13665348638308e-06
6.12429748913555e-06
6.10080874640196e-06
6.05808495844807e-06
5.9838292752556e-06
5.86064985092254e-06
5.66580169549767e-06
5.37208626456794e-06
4.95031190333175e-06
4.37337842725678e-06
3.62153490475858e-06
2.68782387744626e-06
1.58236287657537e-06
4.67883964301023e-09
1.77458962781241e-11
1.7754105365337e-11
4.6973696542341e-09
1.59156271702361e-06
2.70445497348236e-06
3.64466273408934e-06
4.40206241554775e-06
4.98359714963833e-06
5.40902870515467e-06
5.70551651280429e-06
5.90236084508117e-06
6.0269021471621e-06
6.10203720734577e-06
6.14529830060044e-06
6.16909782475871e-06
6.18162411036673e-06
6.18794059512775e-06
6.19099667547121e-06
6.19241743994491e-06
6.19305298032709e-06
6.19332684610378e-06
6.19344061486962e-06
6.19348615989303e-06
6.19350366552151e-06
6.19351000654258e-06
6.1935119064743e-06
6.19351168404291e-06
6.19350935414877e-06
6.19350262013864e-06
6.19348480578185e-06
6.19343918046469e-06
6.19332590712792e-06
6.19305390198921e-06
6.19242327453516e-06
6.19101385333665e-06
6.18798185391089e-06
6.18171309092444e-06
6.1692754316468e-06
6.14563005135202e-06
6.1026192629516e-06
6.02786179503082e-06
5.90384579757262e-06
5.70766797921664e-06
5.41193718686875e-06
4.9872474332233e-06
4.40628339713585e-06
3.64910451439709e-06
2.70861571645005e-06
1.59486964228085e-06
4.71608849197492e-09
1.78834641958957e-11
1.78537842151726e-11
4.72436203241286e-09
1.60064053412749e-06
2.71956762778207e-06
3.66473641614414e-06
4.42606765066073e-06
5.01059966071748e-06
5.43822549005524e-06
5.73625374226163e-06
5.93413408482178e-06
6.0593425262684e-06
6.1348889031404e-06
6.17839288957434e-06
6.20232990686225e-06
6.21493088259111e-06
6.22128635981768e-06
6.22436203731021e-06
6.22579230483149e-06
6.22643230501589e-06
6.22670820576939e-06
6.22682288413949e-06
6.22686883230888e-06
6.22688651815698e-06
6.22689294148819e-06
6.22689487952101e-06
6.22689467148512e-06
6.22689233659292e-06
6.22688557150982e-06
6.22686767388684e-06
6.22682184324245e-06
6.22670806990343e-06
6.22643486340344e-06
6.22580141719095e-06
6.22438559060979e-06
6.22133956887824e-06
6.21504133522156e-06
6.20254435245397e-06
6.17878480027151e-06
6.13556421893604e-06
6.06043906328935e-06
5.93580880816409e-06
5.7386530106492e-06
5.44143777009818e-06
5.01459798728193e-06
4.43065824016597e-06
3.66953618021848e-06
2.7240326374582e-06
1.60414876090214e-06
4.74370129065052e-09
1.79852586506625e-11
1.79230957737927e-11
4.74316951421896e-09
1.60697851327522e-06
2.7301290852107e-06
3.67877691113741e-06
4.44287137826635e-06
5.02951518636413e-06
5.45869133260841e-06
5.75781135502512e-06
5.95642853299805e-06
6.08211331666477e-06
6.15795464206992e-06
6.20163362142803e-06
6.22567020059379e-06
6.23832555754986e-06
6.24470959151816e-06
6.2477997116915e-06
6.24923703063276e-06
6.2498803652789e-06
6.25015780106566e-06
6.25027317319545e-06
6.25031943340512e-06
6.25033726161116e-06
6.25034375179953e-06
6.25034572215531e-06
6.25034552781467e-06
6.25034319188169e-06
6.25033640763231e-06
6.2503184567408e-06
6.25027249447043e-06
6.25015839961375e-06
6.24988441475163e-06
6.2492491240193e-06
6.24782906208523e-06
6.24477367703767e-06
6.23845559031081e-06
6.22591833513113e-06
6.20208076128724e-06
6.15871600361337e-06
6.0833369557942e-06
5.95828085083451e-06
5.76044477342431e-06
5.46219406056349e-06
5.03385098514455e-06
4.44782638811028e-06
3.68393657940015e-06
2.73490693640069e-06
1.61069929722619e-06
4.76318848952168e-09
1.80570152254042e-11
1.79664238082929e-11
4.75495041108024e-09
1.61095848524844e-06
2.73677262987096e-06
3.68762257346321e-06
4.45347293519869e-06
5.04146447918793e-06
5.47163483771738e-06
5.77145886098989e-06
5.97055411717088e-06
6.09655010923188e-06
6.17258560632351e-06
6.21638074133844e-06
6.24048399784233e-06
6.25317612178265e-06
6.25957965810456e-06
6.2626797473578e-06
6.26412198936854e-06
6.26476768133006e-06
6.2650462179989e-06
6.26516209645127e-06
6.26520858959795e-06
6.26522652728315e-06
6.26523307088335e-06
6.26523506848728e-06
6.265234887163e-06
6.2652325536033e-06
6.26522576067424e-06
6.26520778314865e-06
6.26516175483916e-06
6.26504749712663e-06
6.26477310894677e-06
6.26413683471868e-06
6.2627144489104e-06
6.25965379118416e-06
6.25332427009683e-06
6.24076337208327e-06
6.21687925158735e-06
6.17342731749114e-06
6.09789302917207e-06
5.97257412008124e-06
5.77431499907847e-06
5.47541628180735e-06
5.04612750439069e-06
4.45878558921529e-06
3.69314034496517e-06
2.74186663430003e-06
1.6148981118254e-06
4.77569038678076e-09
1.81030553206364e-11
1.79866974110704e-11
4.76047979335113e-09
1.6128359043343e-06
2.739921432232e-06
3.6918331066032e-06
4.45853911709952e-06
5.0471951613794e-06
5.47786221412453e-06
5.77804319753253e-06
5.97738490649551e-06
6.10354428443945e-06
6.17968377017979e-06
6.22354242562476e-06
6.24768295931048e-06
6.26039611632083e-06
6.26681107691547e-06
6.26991715062173e-06
6.27136242449486e-06
6.27200960867477e-06
6.27228886417435e-06
6.27240508571901e-06
6.27245174415502e-06
6.27246976403451e-06
6.27247635035779e-06
6.27247837132669e-06
6.27247820247141e-06
6.27247587389317e-06
6.27246908088738e-06
6.27245109980508e-06
6.27240506417443e-06
6.27229078794884e-06
6.27201633971607e-06
6.27137987070948e-06
6.26995690905315e-06
6.26689470916225e-06
6.26056140723594e-06
6.2479919369822e-06
6.22408970933838e-06
6.18060196185205e-06
6.10500111470722e-06
5.9795656642815e-06
5.78111385481792e-06
5.48191362235359e-06
5.05217722988547e-06
4.46420312021185e-06
3.69770570952021e-06
2.74533180260712e-06
1.61699730229964e-06
4.78196932538731e-09
1.81262636551647e-11
1.79853881272169e-11
4.76014739194281e-09
1.61273916623648e-06
2.73978781754021e-06
3.69168894122957e-06
4.4584036561729e-06
5.04708119202114e-06
5.47777665160044e-06
5.7779879850533e-06
5.97735824404583e-06
6.10354202956543e-06
6.179700775974e-06
6.22357358603884e-06
6.24772387428821e-06
6.26044336575003e-06
6.26686222240982e-06
6.26997057788005e-06
6.27141713239557e-06
6.27206501134509e-06
6.27234463569491e-06
6.27246105220616e-06
6.27250781545607e-06
6.27252589370838e-06
6.27253251372272e-06
6.27253455486011e-06
6.27253439799195e-06
6.2725320765778e-06
6.27252529120655e-06
6.2725073281707e-06
6.27246134143328e-06
6.27234718616509e-06
6.27207301028253e-06
6.27143710927335e-06
6.27001525741894e-06
6.26695510014051e-06
6.26062534516888e-06
6.2480616812587e-06
6.22416839198623e-06
6.1806935341864e-06
6.10511000335633e-06
5.97969604881976e-06
5.78126856860066e-06
5.48209280253173e-06
5.05237694243675e-06
4.46441419034056e-06
3.6979128631405e-06
2.74551301619754e-06
1.6171230258383e-06
4.78240612780229e-09
1.81280796803275e-11
1.79625190597511e-11
4.75395948525064e-09
1.61067004425176e-06
2.73637374711825e-06
3.6871916385079e-06
4.45306754133951e-06
5.04112309623419e-06
5.4713784662732e-06
5.77129359824057e-06
5.97047475970873e-06
6.0965443292851e-06
6.17263797123607e-06
6.21647589494101e-06
6.24060866231189e-06
6.25331996385066e-06
6.25973530183957e-06
6.2628423052221e-06
6.26428842831222e-06
6.26493622554584e-06
6.26521587934701e-06
6.26533234771619e-06
6.26537915751224e-06
6.2653972711859e-06
6.26540391612862e-06
6.26540597428237e-06
6.26540582892424e-06
6.26540351694681e-06
6.26539674728893e-06
6.26537882489712e-06
6.26533294560591e-06
6.26521905588288e-06
6.26494549533799e-06
6.26431094587849e-06
6.26289192811031e-06
6.25983746596643e-06
6.25351869710655e-06
6.24097538834081e-06
6.21711832208285e-06
6.17370536014248e-06
6.09822335589759e-06
5.97296923310317e-06
5.7747832572798e-06
5.47595783263878e-06
5.04673017924552e-06
4.459421467844e-06
3.6937633051454e-06
2.74241054956821e-06
1.6152747274463e-06
4.77699703444958e-09
1.81084839529717e-11
1.79166777978196e-11
4.74154188792077e-09
1.60650427908406e-06
2.72947137386772e-06
3.67806430945328e-06
4.44219929251441e-06
5.02894813135909e-06
5.45826518039844e-06
5.75753717545877e-06
5.95629832550179e-06
6.0821068799451e-06
6.15804630407057e-06
6.20179764190338e-06
6.22588421874807e-06
6.23857211429428e-06
6.24497619440013e-06
6.24807806797605e-06
6.24952198728658e-06
6.25016890238642e-06
6.25044823715461e-06
6.25056461086673e-06
6.25061140758547e-06
6.25062953309681e-06
6.25063619386451e-06
6.25063826572813e-06
6.25063813145776e-06
6.2506358315873e-06
6.25062908678847e-06
6.25061123018179e-06
6.25056552275179e-06
6.25045205644425e-06
6.25017948377644e-06
6.24954713349189e-06
6.24813280885582e-06
6.24508796839874e-06
6.2387881623701e-06
6.22628077336414e-06
6.2024890618202e-06
6.15919023097712e-06
6.08389938798312e-06
5.95895218566397e-06
5.76123845486494e-06
5.46310944336454e-06
5.03486656977458e-06
4.4488943508814e-06
3.6849791221826e-06
2.73581381374755e-06
1.6113248970266e-06
4.76535369753351e-09
1.8066006136929e-11
1.78450126878402e-11
4.72213961952798e-09
1.59999181400458e-06
2.71866355808988e-06