/*--------------------------------*- C++ -*----------------------------------*\
  =========                 |
  \\      /  F ield         | OpenFOAM: The Open Source CFD Toolbox
   \\    /   O peration     | Website:  https://openfoam.org
    \\  /    A nd           | Version:  10
     \\/     M anipulation  |
\*---------------------------------------------------------------------------*/
FoamFile
{
    format      ascii;
    class       volScalarField;
    location    "8.2";
    object      h;
}
// * * * * * * * * * * * * * * * * * * * * * * * * * * * * * * * * * * * * * //

dimensions      [0 2 -2 0 0 0 0];

internalField   nonuniform List<scalar> 
2500
(
6175.89425056677
6173.33067972655
6164.0770062346
6156.58443199384
6151.58303392958
6148.47016081547
6146.59842566363
6145.50159554001
6144.87737311056
6144.53487935103
6144.35252930841
6144.25942608049
6144.21367506828
6144.19147357628
6144.18088372248
6144.17560457672
6144.17324213164
6144.17181781778
6144.17075783732
6144.17010378872
6144.16960574048
6144.16920485997
6144.16888846916
6144.16869372387
6144.16850151553
6144.1683543434
6144.16830938443
6144.16831627373
6144.16838756281
6144.16853794943
6144.16879980714
6144.16930203205
6144.17003370613
6144.17133340097
6144.17385698997
6144.17907085275
6144.19007282281
6144.21301565192
6144.26094039757
6144.35636248514
6144.54098962643
6144.88618441757
6145.50990009547
6146.60146064955
6148.46383765973
6151.5631882381
6156.56659160648
6164.10082087202
6173.39902914288
6175.80487686537
5418.98853997534
5399.65909331429
5372.48669123561
5351.21395114989
5336.85888426578
5327.75339686601
5322.15578578038
5318.79961775684
5316.84377440091
5315.74160720172
5315.14225630517
5314.82868224051
5314.67085417696
5314.59413346808
5314.55806387961
5314.54150978916
5314.5342053344
5314.53086864417
5314.52920725824
5314.5283608025
5314.52785193159
5314.52749384421
5314.52722751854
5314.52704948484
5314.52689499548
5314.52677551128
5314.52672103883
5314.52670972457
5314.52675036319
5314.52688451577
5314.52720753782
5314.52795414021
5314.52955992795
5314.53312131069
5314.54105912042
5314.55864683741
5314.59676202956
5314.67689524782
5314.84018171951
5315.16054852811
5315.7670050915
5316.87445903394
5318.82819910427
5322.16941443911
5327.73812211516
5336.81424688255
5351.19157432536
5372.60612557937
5399.9508528547
5418.57592870295
4626.05951088945
4589.30650765832
4549.15564765534
4518.93392080211
4498.77516560729
4486.05695304238
4478.26150367669
4473.59380250812
4470.87324335592
4469.33762762831
4468.50094851014
4468.06195339444
4467.84029484766
4467.73245099255
4467.68183607325
4467.65884579227
4467.64877047901
4467.64439112783
4467.64243875362
4467.64154422649
4467.64107964724
4467.64078818516
4467.64058292238
4467.64044336666
4467.64033079426
4467.64024268763
4467.64019313581
4467.64017116605
4467.6401864917
4467.64029762195
4467.64063012577
4467.64148400774
4467.64353930263
4467.64832454384
4467.65924768787
4467.68372749741
4467.73703100047
4467.84926994513
4468.07752985236
4468.52489643814
4469.37041777405
4470.91230233959
4473.63050433597
4478.28074437798
4486.04367023456
4498.73906803646
4518.96401335985
4549.45073477331
4589.98449786417
4626.03817266992
3886.30607671156
3838.69388205129
3794.20148013448
3762.05652452741
3741.1581056735
3728.25907165301
3720.50936049069
3715.95071774843
3713.33400515968
3711.87600365739
3711.09047071936
3710.68227213183
3710.4779084775
3710.37929471985
3710.33339959572
3710.31276881792
3710.30382231598
3710.30002363877
3710.29840677213
3710.29770648855
3710.2973695419
3710.29716973942
3710.29703096644
3710.29693570288
3710.29686198184
3710.29680276697
3710.29676331364
3710.29673754089
3710.29672823328
3710.29678599243
3710.29702318049
3710.29769798113
3710.29943228254
3710.30357717514
3710.3131813729
3710.33498079568
3710.38297351107
3710.48506173081
3710.6946893571
3711.10982148079
3711.90311310868
3713.36737839473
3715.9842625958
3720.53204886734
3728.26225777444
3741.1640873185
3762.18097219554
3794.70009798588
3839.79954280365
3887.17805917399
3260.43634335128
3210.61277584689
3168.74267926482
3139.66182018677
3121.2699329471
3110.18664671846
3103.67016013047
3099.9081080662
3097.78207214801
3096.61241298788
3095.98872054427
3095.66733805548
3095.50755025407
3095.43091426437
3095.39545426147
3095.37962174871
3095.37281048127
3095.36996521505
3095.36879385915
3095.36831177915
3095.36809684536
3095.36797655525
3095.36789322439
3095.36783586359
3095.36779305727
3095.36775724588
3095.36772920017
3095.36770506655
3095.36768640528
3095.36770217442
3095.36783943702
3095.36830092529
3095.36956489416
3095.37264935576
3095.37987075588
3095.39642072208
3095.43316802771
3095.51196595815
3095.67508549571
3096.00100829941
3096.63005650093
3097.80453953592
3099.93207060349
3103.68955488048
3110.19992260412
3121.30812980026
3139.85167301053
3169.36822969649
3212.01829378048
3262.18555144656
2774.49627909674
2729.5737672028
2694.71459935237
2671.38047981353
2657.02722683259
2648.58563889728
2643.72943414477
2640.97761491544
2639.44578401537
2638.61293478374
2638.17287307765
2637.94768858271
2637.83632404107
2637.78314012796
2637.75862614253
2637.74773038625
2637.74307227229
2637.74115230079
2637.7403843768
2637.74008467246
2637.73996309887
2637.73990066444
2637.73985714533
2637.73982713279
2637.73980580805
2637.73978663061
2637.73976850816
2637.73974894357
2637.73973036717
2637.73972604425
2637.73978924831
2637.74006615292
2637.74089534749
2637.74296006669
2637.74783331675
2637.75908848774
2637.78424387596
2637.83851886921
2637.9515996169
2638.1791999259
2638.62225115255
2639.45802387615
2640.99127887979
2643.74197059007
2648.59988745871
2657.07615132154
2671.5850888655
2695.35440093747
2731.05834499278
2776.76718363047
2425.24216836827
2389.17989577849
2362.92601883866
2345.94415904397
2335.77856588797
2329.94202539223
2326.65599051239
2324.82756113952
2323.82436219964
2323.28485838224
2323.00206747259
2322.85818200158
2322.78730536197
2322.75355300261
2322.73803277065
2322.73115535562
2322.72823024712
2322.72703911724
2322.72657580429
2322.72640530374
2322.72634450613
2322.72631823759
2322.72629973928
2322.72628679041
2322.72627859228
2322.72626987806
2322.7262591498
2322.72624486346
2322.72622859503
2322.72621791313
2322.72623912192
2322.7263867497
2322.7268856884
2322.72815601179
2322.73117637758
2322.73819725375
2322.75396757987
2322.78815005399
2322.85972158348
2323.00462062018
2323.28872357898
2323.82957014321
2324.83347622083
2326.66177777394
2329.95180613572
2335.82128814409
2346.12239992642
2363.48648928574
2390.53509017823
2427.58962992587
2191.28086685754
2164.9896916101
2146.8419617971
2135.47050624362
2128.83987482728
2125.1213067934
2123.07142087803
2121.95092507984
2121.34462893761
2121.02187206552
2120.85388307423
2120.76880449816
2120.72701491383
2120.70714810437
2120.69802463248
2120.69398976153
2120.69228116899
2120.69159345059
2120.69133360758
2120.69124426803
2120.69121762508
2120.69121056211
2120.69120565637
2120.69120179359
2120.69120054397
2120.69119764228
2120.69119183834
2120.69118231528
2120.69116981912
2120.69115940675
2120.69116186597
2120.69123200672
2120.69150945953
2120.69223690595
2120.69398005699
2120.69805433
2120.70723967577
2120.72721339295
2120.76918592037
2120.85454758633
2121.02292004986
2121.34604005464
2121.95234787738
2123.07254551968
2125.12558188407
2128.86918188874
2135.60309528463
2147.27508546311
2166.08689575317
2193.35755407836
2044.3574950846
2026.71441092654
2015.07949029689
2008.00075997256
2003.97582355857
2001.76939493171
2000.57787252174
1999.93779131159
1999.5960659562
1999.41588110054
1999.32268597001
1999.27566408489
1999.25261225022
1999.24166219534
1999.23663584353
1999.23441562863
1999.23347916071
1999.23310656976
1999.23296998451
1999.23292703961
1999.23291858802
1999.23291955081
1999.23292000237
1999.23292012767
1999.23292115656
1999.23292081702
1999.23291788984
1999.23291208835
1999.23290344747
1999.23289482521
1999.23289140998
1999.23292153053
1999.23306491415
1999.23345602334
1999.23440178612
1999.23662274366
1999.24164244742
1999.25257986157
1999.27561906369
1999.32263247438
1999.41581673799
1999.5959111943
1999.93725380361
2000.57666233456
2001.76964554887
2003.99210363751
2008.08737949015
2015.38058634948
2027.51676947319
2045.98729838776
1957.43194068223
1946.42562163927
1939.45046432834
1935.32136985112
1933.02931658915
1931.80016410752
1931.14957941186
1930.80598753081
1930.6249346035
1930.5303321223
1930.48167846635
1930.45720469465
1930.4452210285
1930.43952899928
1930.43691567534
1930.43576210574
1930.43527735174
1930.4350867888
1930.43501932012
1930.43500153909
1930.43500074798
1930.43500299197
1930.43500494126
1930.43500639249
1930.43500773863
1930.43500792913
1930.4350066248
1930.43500325381
1930.43499776727
1930.43499161511
1930.43498758814
1930.43499896923
1930.43506840743
1930.43526717056
1930.43575301335
1930.43689857071
1930.43949156456
1930.44514659807
1930.45707422841
1930.48146855403
1930.53000559442
1930.62439007764
1930.80495502481
1931.14770045008
1931.79842055379
1933.03636910379
1935.37182912377
1939.64138147594
1946.96278073313
1958.59143013113
1908.76597296373
1902.33380697499
1898.39777144384
1896.12630966789
1894.89391629521
1894.24687563851
1893.91102907798
1893.7366013209
1893.64585966351
1893.59885836026
1893.57481075133
1893.56274399196
1893.55683882295
1893.55403252594
1893.5527431713
1893.55217419208
1893.55193597336
1893.55184351906
1893.55181246997
1893.55180601353
1893.55180704994
1893.55180918755
1893.55181105947
1893.55181253557
1893.5518136077
1893.55181395896
1893.55181341078
1893.55181149729
1893.55180825503
1893.55180433034
1893.55180114615
1893.55180474247
1893.55183661238
1893.55193263028
1893.55217027192
1893.55273259294
1893.55400616563
1893.55678346349
1893.56264297624
1893.57464158412
1893.59858343814
1893.64538773279
1893.73570456991
1893.90934167977
1894.2446587312
1894.89579809702
1896.15269877056
1898.50932731919
1902.66647861759
1909.52469873092
1882.88195456101
1879.33846912581
1877.23630848032
1876.05153954395
1875.42253178596
1875.09894310424
1874.93415100907
1874.84996181463
1874.80671581483
1874.78450530473
1874.77319609284
1874.76753248982
1874.76476100895
1874.76344260505
1874.762836182
1874.76256858211
1874.76245696227
1874.76241421287
1874.76240083765
1874.76239892847
1874.76240002844
1874.76240157752
1874.76240292544
1874.76240399939
1874.76240471483
1874.76240502094
1874.76240479474
1874.76240375275
1874.76240195433
1874.76239966522
1874.76239766809
1874.76239851838
1874.7624123541
1874.76245661256
1874.76256780916
1874.76283175633
1874.7634294358
1874.76473152358
1874.76747677977
1874.77309975344
1874.78434153556
1874.80641720691
1874.84935829373
1874.93293463255
1875.09703867416
1875.42216254618
1876.06391227118
1877.29684878838
1879.53065311429
1883.3434765429
1869.75687422207
1867.90708081361
1866.83949409727
1866.25089658045
1865.94475895582
1865.79031752387
1865.71310944592
1865.67430108556
1865.65461521481
1865.64458889428
1865.63950670959
1865.63696559938
1865.63572163321
1865.63512904086
1865.63485607286
1865.63473560144
1865.63468554658
1865.63466668082
1865.63466127986
1865.63466090537
1865.6346616591
1865.63466262692
1865.63466346204
1865.63466412667
1865.63466455254
1865.63466475627
1865.63466466221
1865.63466412201
1865.63466317947
1865.63466193714
1865.63466077664
1865.63466081647
1865.63466659152
1865.63468615528
1865.63473613028
1865.63485508666
1865.63512421013
1865.63570946281
1865.6369414356
1865.63946316601
1865.64451007687
1865.65445766608
1865.67395115793
1865.71234356523
1865.78896309262
1865.94376652981
1866.25602758398
1866.8701919353
1868.01135106291
1870.01997993512
1863.39150127588
1862.47240643877
1861.95477823143
1861.67515942085
1861.53252282031
1861.46190016799
1861.42722446304
1861.41007208982
1861.4014796583
1861.39713942002
1861.39494888801
1861.39385499109
1861.39331908621
1861.39306334897
1861.39294534634
1861.39289325369
1861.39287169928
1861.39286374378
1861.3928616591
1861.39286167921
1861.39286215145
1861.39286269828
1861.39286316565
1861.39286353577
1861.39286376804
1861.39286388436
1861.39286384451
1861.39286357763
1861.39286310838
1861.39286247496
1861.39286185279
1861.39286173498
1861.39286405621
1861.39287238875
1861.39289403922
1861.392945698
1861.39306239463
1861.39331553099
1861.3938471096
1861.39493353663
1861.39710830923
1861.40140752159
1861.40988981011
1861.42678732931
1861.46104887997
1861.53160836147
1861.6769669477
1861.96938822174
1862.52583933196
1863.532992978
1860.4303829748
1859.99406101887
1859.75360803146
1859.62615109048
1859.56231319726
1859.53126638341
1859.51628621751
1859.50899245982
1859.50538401027
1859.50357623023
1859.50266761976
1859.50221432936
1859.50199202272
1859.50188571986
1859.50183657469
1859.50181487173
1859.50180593032
1859.50180270559
1859.50180193682
1859.50180202122
1859.50180228582
1859.50180257114
1859.50180281289
1859.50180300313
1859.50180312092
1859.50180318084
1859.5018031637
1859.50180303764
1859.5018028148
1859.50180250928
1859.50180219882
1859.50180209721
1859.50180300032
1859.50180643449
1859.50181550462
1859.50183718924
1859.50188607553
1859.50199178395
1859.50221306733
1859.50266425838
1859.50356686869
1859.50535512708
1859.50890524523
1859.51605527486
1859.53077851258
1859.5616705015
1859.62662394299
1859.76015550419
1860.02004755586
1860.50254798707
1859.10560839508
1858.90703522793
1858.79969253636
1858.7437795815
1858.71625271385
1858.70309181462
1858.69684795007
1858.69385473813
1858.69239221891
1858.69166550922
1858.69130172618
1858.69112037731
1858.69103131826
1858.69098863364
1858.69096885773
1858.69096012029
1858.69095653617
1858.69095527524
1858.69095500436
1858.69095506756
1858.69095520263
1858.69095534166
1858.69095545861
1858.69095555003
1858.69095560603
1858.69095563455
1858.69095562716
1858.69095557012
1858.69095546893
1858.69095532892
1858.69095518351
1858.69095512375
1858.69095546593
1858.6909568401
1858.6909605255
1858.69096934885
1858.69098919063
1858.69103193568
1858.69112107207
1858.69130225321
1858.6916641896
1858.69238229784
1858.69381586537
1858.69673345869
1858.70283215576
1858.71586227228
1858.74380647758
1858.80246090187
1858.91907916683
1859.14067389606
1858.53422772744
1858.44733413729
1858.40115767475
1858.37748969351
1858.36602378
1858.36062992702
1858.35811223412
1858.35692353848
1858.35634987282
1858.35606715146
1858.35592617896
1858.35585594094
1858.35582139176
1858.35580479029
1858.35579708034
1858.35579367133
1858.35579227846
1858.35579179962
1858.35579170751
1858.3557917433
1858.35579180694
1858.35579187047
1858.35579192361
1858.35579196488
1858.35579198991
1858.35579200258
1858.35579199943
1858.35579197471
1858.35579193078
1858.35579186974
1858.35579180555
1858.35579177596
1858.35579190341
1858.35579243978
1858.35579389635
1858.35579738553
1858.3558052083
1858.35582198957
1858.355856828
1858.35592737145
1858.35606798355
1858.35634716145
1858.35690722893
1858.3580584418
1858.36050001582
1858.36580897455
1858.37741405765
1858.40226256103
1858.45267262803
1858.55052333874
1858.29612785267
1858.25947112175
1858.24028364012
1858.23059359937
1858.22596931788
1858.22382704596
1858.22284258009
1858.22238463474
1858.22216632373
1858.2220596076
1858.22200659902
1858.2219801967
1858.22196718499
1858.22196091446
1858.22195799411
1858.22195670094
1858.22195617386
1858.22195599569
1858.22195596453
1858.22195598155
1858.22195600915
1858.2219560362
1858.22195605875
1858.22195607616
1858.22195608661
1858.22195609184
1858.22195609052
1858.22195608031
1858.22195606217
1858.221956037
1858.22195601042
1858.22195599765
1858.22195604518
1858.22195625064
1858.22195681253
1858.22195815713
1858.22196116041
1858.22196757211
1858.22198081609
1858.22200751359
1858.22206057326
1858.22216591399
1858.22237813485
1858.22281844308
1858.22376541137
1858.2258597481
1858.23052291619
1858.2406993292
1858.26174125476
1858.30339485296
1858.20007396467
1858.18513075933
1858.17741294104
1858.17356784486
1858.17175834747
1858.17093209536
1858.17055801259
1858.17038649139
1858.170305706
1858.17026653388
1858.17024714749
1858.17023749208
1858.17023272261
1858.17023041607
1858.17022933774
1858.17022885863
1858.17022866296
1858.17022859683
1858.17022858532
1858.17022859189
1858.17022860251
1858.1702286129
1858.17022862157
1858.17022862824
1858.17022863218
1858.17022863412
1858.17022863357
1858.17022862962
1858.17022862265
1858.17022861305
1858.17022860302
1858.17022859852
1858.17022861697
1858.1702286951
1858.17022890784
1858.17022941461
1858.17023054047
1858.17023293041
1858.17023783878
1858.17024768224
1858.17026717399
1858.17030583943
1858.17038400778
1858.17054760381
1858.17090418149
1858.17170579316
1858.17352250961
1858.17755976325
1858.18605941929
1858.20319293002
1858.16249085133
1858.15659182444
1858.15358102105
1858.15209950319
1858.15141126146
1858.15110122719
1858.15096283182
1858.15090025149
1858.15087112225
1858.1508571088
1858.15085019698
1858.15084675297
1858.15084504636
1858.15084421693
1858.15084382665
1858.15084365171
1858.15084357928
1858.15084355376
1858.15084354821
1858.15084354962
1858.1508435527
1858.15084355585
1858.15084355852
1858.15084356057
1858.15084356174
1858.15084356229
1858.15084356206
1858.15084356071
1858.1508435584
1858.15084355529
1858.15084355223
1858.1508435515
1858.15084355955
1858.15084358979
1858.15084366981
1858.15084385788
1858.15084427179
1858.15084514358
1858.15084692155
1858.15085046549
1858.15085745146
1858.15087128626
1858.15089933085
1858.15095849396
1858.15108909492
1858.15138733457
1858.15207482
1858.15362927646
1858.15695816662
1858.1637825644
1858.14820429196
1858.14594487251
1858.14480376892
1858.14424859208
1858.14399374052
1858.14388037882
1858.14383044557
1858.14380816353
1858.14379790874
1858.14379301195
1858.14379060319
1858.14378940092
1858.14378880197
1858.14378850829
1858.14378836816
1858.14378830383
1858.14378827593
1858.14378826486
1858.1437882611
1858.14378826009
1858.14378825998
1858.14378826011
1858.14378826029
1858.14378826044
1858.14378826048
1858.14378826047
1858.14378826036
1858.14378826007
1858.14378825963
1858.14378825913
1858.14378825888
1858.14378825979
1858.14378826416
1858.14378827676
1858.14378830757
1858.14378837742
1858.14378852803
1858.14378884102
1858.14378947294
1858.14379072249
1858.14379317122
1858.14379800699
1858.14380782624
1858.14382868875
1858.14387529518
1858.14398332942
1858.14423644175
1858.14481825816
1858.14608453402
1858.14872169337
1858.14291988259
1858.14207878375
1858.14165798244
1858.14145536155
1858.14136336249
1858.14132291573
1858.14130531925
1858.14129756339
1858.14129403092
1858.14129235462
1858.14129153061
1858.14129111721
1858.14129090889
1858.1412908047
1858.14129075327
1858.14129072817
1858.14129071596
1858.14129070988
1858.14129070662
1858.14129070462
1858.14129070321
1858.14129070214
1858.14129070132
1858.14129070072
1858.14129070031
1858.14129070008
1858.14129070003
1858.14129070015
1858.14129070045
1858.14129070096
1858.14129070182
1858.14129070338
1858.14129070644
1858.1412907127
1858.1412907257
1858.14129075271
1858.14129080823
1858.14129092035
1858.14129114257
1858.14129157636
1858.1412924189
1858.14129407459
1858.14129743689
1858.14130462276
1858.14132085279
1858.14135900943
1858.14144979928
1858.14166179321
1858.14213033743
1858.14312074388
1858.14101519614
1858.14071040002
1858.14055922582
1858.1404871292
1858.14045472108
1858.14044062385
1858.14043455878
1858.14043191423
1858.14043071967
1858.14043015441
1858.14042987513
1858.14042973287
1858.14042965913
1858.14042962042
1858.14042959971
1858.14042958822
1858.14042958142
1858.14042957702
1858.1404295739
1858.14042957151
1858.1404295696
1858.14042956807
1858.14042956687
1858.14042956598
1858.14042956538
1858.14042956508
1858.14042956507
1858.14042956534
1858.14042956592
1858.14042956681
1858.14042956809
1858.14042956988
1858.1404295725
1858.14042957653
1858.14042958321
1858.14042959505
1858.14042961699
1858.1404296585
1858.1404297375
1858.14042988774
1858.14043017461
1858.14043073268
1858.14043186224
1858.14043428493
1858.14043980835
1858.14045296342
1858.14048472369
1858.14056000043
1858.14072885783
1858.14109091107
1858.14034533369
1858.14023766754
1858.14018471947
1858.14015970215
1858.14014855991
1858.14014375769
1858.14014171005
1858.14014082374
1858.14014042436
1858.14014023401
1858.14014013788
1858.14014008681
1858.14014005843
1858.14014004187
1858.14014003159
1858.14014002471
1858.14014001975
1858.14014001592
1858.14014001284
1858.1401400103
1858.1401400082
1858.1401400065
1858.14014000516
1858.14014000417
1858.14014000351
1858.14014000318
1858.14014000319
1858.14014000352
1858.1401400042
1858.14014000523
1858.14014000666
1858.14014000855
1858.140140011
1858.14014001426
1858.14014001874
1858.14014002532
1858.14014003564
1858.14014005286
1858.14014008284
1858.1401401366
1858.14014023535
1858.14014042289
1858.14014079781
1858.14014160021
1858.1401434403
1858.14014787052
1858.1401587092
1858.14018476823
1858.1402440871
1858.14037309302
1858.14011518081
1858.14007806791
1858.14005999737
1858.14005154707
1858.14004781584
1858.14004621843
1858.14004553991
1858.1400452456
1858.14004511106
1858.14004504462
1858.14004500881
1858.14004498778
1858.14004497439
1858.14004496518
1858.14004495837
1858.14004495305
1858.14004494871
1858.14004494508
1858.14004494201
1858.14004493943
1858.14004493728
1858.14004493552
1858.14004493414
1858.14004493311
1858.14004493244
1858.1400449321
1858.14004493211
1858.14004493246
1858.14004493318
1858.14004493426
1858.14004493574
1858.14004493765
1858.14004494006
1858.14004494304
1858.14004494677
1858.14004495154
1858.14004495792
1858.14004496694
1858.14004498048
1858.14004500207
1858.14004503843
1858.14004510349
1858.14004522883
1858.14004549222
1858.14004609395
1858.14004755061
1858.1400511526
1858.14005993338
1858.1400802398
1858.14012509406
1858.14003784004
1858.14002535077
1858.1400193667
1858.1400166111
1858.14001540487
1858.14001488862
1858.14001466697
1858.14001456794
1858.14001451983
1858.14001449352
1858.14001447719
1858.14001446587
1858.14001445734
1858.14001445053
1858.14001444488
1858.14001444008
1858.14001443596
1858.14001443242
1858.14001442937
1858.14001442679
1858.14001442463
1858.14001442286
1858.14001442147
1858.14001442044
1858.14001441976
1858.14001441943
1858.14001441945
1858.14001441981
1858.14001442053
1858.14001442163
1858.14001442312
1858.14001442504
1858.14001442741
1858.14001443029
1858.14001443375
1858.14001443792
1858.14001444297
1858.14001444926
1858.1400144574
1858.14001446846
1858.14001448455
1858.14001450996
1858.14001455446
1858.14001464236
1858.14001483682
1858.14001530265
1858.14001645887
1858.14001931714
1858.14002606652
1858.14004129243
1858.14001239452
1858.14000829697
1858.1400064056
1858.14000556412
1858.14000519971
1858.14000504057
1858.14000496824
1858.1400049323
1858.14000491181
1858.14000489823
1858.14000488805
1858.14000487981
1858.14000487285
1858.14000486683
1858.14000486157
1858.14000485696
1858.14000485294
1858.14000484944
1858.14000484643
1858.14000484386
1858.14000484171
1858.14000483996
1858.14000483858
1858.14000483756
1858.14000483689
1858.14000483656
1858.14000483658
1858.14000483694
1858.14000483767
1858.14000483876
1858.14000484025
1858.14000484216
1858.14000484451
1858.14000484734
1858.1400048507
1858.14000485464
1858.14000485925
1858.14000486464
1858.14000487102
1858.14000487872
1858.14000488836
1858.1400049012
1858.1400049201
1858.14000495211
1858.14000501551
1858.14000515835
1858.14000550618
1858.14000638014
1858.14000852712
1858.14001356784
1858.14000419081
1858.1400028894
1858.14000235361
1858.14000214168
1858.14000205196
1858.14000200825
1858.14000198363
1858.14000196759
1858.14000195569
1858.14000194602
1858.14000193773
1858.14000193045
1858.14000192398
1858.14000191823
1858.14000191313
1858.14000190861
1858.14000190465
1858.1400019012
1858.14000189822
1858.14000189569
1858.14000189356
1858.14000189183
1858.14000189047
1858.14000188946
1858.1400018888
1858.14000188848
1858.1400018885
1858.14000188887
1858.14000188959
1858.14000189068
1858.14000189215
1858.14000189404
1858.14000189637
1858.14000189916
1858.14000190246
1858.14000190631
1858.14000191075
1858.14000191585
1858.14000192166
1858.14000192831
1858.14000193596
1858.14000194495
1858.14000195598
1858.14000197065
1858.14000199288
1858.14000203279
1858.14000211928
1858.14000234289
1858.14000296189
1858.14000457971
1858.14000159759
1858.14000120818
1858.14000111185
1858.14000110245
1858.14000110027
1858.14000109289
1858.14000108302
1858.14000107298
1858.1400010636
1858.14000105505
1858.14000104731
1858.14000104031
1858.14000103401
1858.14000102837
1858.14000102335
1858.14000101891
1858.140001015
1858.1400010116
1858.14000100867
1858.14000100617
1858.14000100408
1858.14000100238
1858.14000100104
1858.14000100005
1858.14000099941
1858.1400009991
1858.14000099912
1858.14000099948
1858.1400010002
1858.14000100127
1858.14000100273
1858.14000100459
1858.14000100689
1858.14000100965
1858.1400010129
1858.1400010167
1858.14000102106
1858.14000102604
1858.14000103168
1858.14000103801
1858.14000104509
1858.14000105299
1858.14000106175
1858.1400010713
1858.14000108106
1858.1400010891
1858.14000109312
1858.14000110832
1858.14000123086
1858.1400017228
1858.14000079442
1858.14000069654
1858.14000073954
1858.14000079359
1858.14000081834
1858.14000082183
1858.14000081618
1858.14000080773
1858.14000079896
1858.14000079065
1858.14000078302
1858.1400007761
1858.14000076987
1858.14000076429
1858.14000075934
1858.14000075496
1858.14000075112
1858.14000074777
1858.1400007449
1858.14000074245
1858.1400007404
1858.14000073873
1858.14000073742
1858.14000073646
1858.14000073583
1858.14000073553
1858.14000073555
1858.14000073591
1858.14000073662
1858.14000073768
1858.14000073911
1858.14000074094
1858.1400007432
1858.14000074592
1858.14000074913
1858.14000075287
1858.14000075719
1858.14000076211
1858.14000076768
1858.14000077394
1858.1400007809
1858.14000078857
1858.14000079681
1858.14000080507
1858.1400008114
1858.14000081011
1858.14000078905
1858.14000073921
1858.14000070396
1858.140000833
1858.14000055198
1858.14000054555
1858.14000063151
1858.14000070448
1858.14000073684
1858.14000074309
1858.1400007383
1858.14000073004
1858.14000072125
1858.14000071291
1858.14000070526
1858.14000069836
1858.14000069216
1858.14000068665
1858.14000068176
1858.14000067745
1858.14000067368
1858.1400006704
1858.14000066759
1858.14000066519
1858.1400006632
1858.14000066157
1858.1400006603
1858.14000065936
1858.14000065875
1858.14000065846
1858.14000065849
1858.14000065884
1858.14000065953
1858.14000066057
1858.14000066198
1858.14000066378
1858.14000066599
1858.14000066866
1858.14000067182
1858.14000067551
1858.14000067977
1858.14000068465
1858.14000069019
1858.14000069644
1858.14000070343
1858.14000071115
1858.14000071943
1858.1400007276
1858.14000073333
1858.1400007298
1858.14000070179
1858.1400006326
1858.14000054853
1858.14000056279
1858.14000048243
1858.14000050421
1858.14000060267
1858.14000068047
1858.14000071426
1858.14000072066
1858.14000071564
1858.1400007071
1858.1400006981
1858.14000068962
1858.14000068191
1858.140000675
1858.14000066885
1858.14000066339
1858.14000065858
1858.14000065436
1858.14000065067
1858.14000064747
1858.14000064473
1858.1400006424
1858.14000064046
1858.14000063888
1858.14000063764
1858.14000063673
1858.14000063614
1858.14000063586
1858.1400006359
1858.14000063625
1858.14000063692
1858.14000063794
1858.14000063931
1858.14000064107
1858.14000064324
1858.14000064585
1858.14000064895
1858.14000065258
1858.14000065678
1858.14000066162
1858.14000066714
1858.1400006734
1858.14000068045
1858.14000068831
1858.14000069682
1858.14000070531
1858.14000071136
1858.14000070784
1858.14000067861
1858.14000060447
1858.14000050604
1858.14000048462
1858.14000046574
1858.1400004961
1858.14000059748
1858.14000067557
1858.14000070874
1858.14000071438
1858.14000070872
1858.14000069973
1858.14000069043
1858.14000068179
1858.14000067402
1858.14000066711
1858.140000661
1858.14000065562
1858.14000065089
1858.14000064676
1858.14000064316
1858.14000064006
1858.14000063739
1858.14000063514
1858.14000063326
1858.14000063174
1858.14000063054
1858.14000062967
1858.1400006291
1858.14000062883
1858.14000062887
1858.14000062921
1858.14000062987
1858.14000063086
1858.1400006322
1858.14000063391
1858.14000063602
1858.14000063857
1858.1400006416
1858.14000064516
1858.14000064929
1858.14000065407
1858.14000065956
1858.14000066584
1858.14000067297
1858.140000681
1858.14000068981
1858.14000069877
1858.14000070548
1858.14000070276
1858.14000067421
1858.14000059973
1858.14000049777
1858.14000046541
1858.14000046552
1858.14000049844
1858.14000059962
1858.14000067636
1858.14000070809
1858.14000071259
1858.14000070611
1858.14000069657
1858.14000068694
1858.14000067812
1858.14000067029
1858.1400006634
1858.14000065735
1858.14000065206
1858.14000064743
1858.14000064341
1858.14000063992
1858.14000063691
1858.14000063434
1858.14000063216
1858.14000063036
1858.14000062889
1858.14000062774
1858.1400006269
1858.14000062636
1858.14000062611
1858.14000062615
1858.14000062649
1858.14000062713
1858.14000062808
1858.14000062938
1858.14000063104
1858.14000063308
1858.14000063556
1858.14000063851
1858.14000064199
1858.14000064604
1858.14000065076
1858.1400006562
1858.14000066248
1858.14000066968
1858.14000067789
1858.14000068704
1858.14000069655
1858.14000070408
1858.14000070253
1858.14000067542
1858.14000060222
1858.14000050024
1858.14000046458
1858.14000047107
1858.14000050466
1858.1400006044
1858.140000679
1858.14000070883
1858.14000071193
1858.1400007045
1858.14000069437
1858.1400006844
1858.14000067542
1858.14000066754
1858.14000066068
1858.14000065471
1858.14000064953
1858.14000064502
1858.14000064112
1858.14000063775
1858.14000063485
1858.14000063238
1858.14000063029
1858.14000062856
1858.14000062716
1858.14000062607
1858.14000062527
1858.14000062476
1858.14000062452
1858.14000062456
1858.14000062489
1858.14000062551
1858.14000062643
1858.14000062768
1858.14000062928
1858.14000063125
1858.14000063365
1858.14000063651
1858.14000063989