/*--------------------------------*- C++ -*----------------------------------*\
  =========                 |
  \\      /  F ield         | OpenFOAM: The Open Source CFD Toolbox
   \\    /   O peration     | Website:  https://openfoam.org
    \\  /    A nd           | Version:  10
     \\/     M anipulation  |
\*---------------------------------------------------------------------------*/
FoamFile
{
    format      ascii;
    class       volScalarField;
    location    "8.2";
    object      k;
}
// * * * * * * * * * * * * * * * * * * * * * * * * * * * * * * * * * * * * * //

dimensions      [0 2 -2 0 0 0 0];

internalField   nonuniform List<scalar> 
2500
(
6.74354311721877e-10
1.32772855598506e-08
5.69111730719695e-08
9.92475309327328e-08
1.36545775496205e-07
1.67470191183881e-07
1.91663797870245e-07
2.09543022444714e-07
2.22038436829689e-07
2.3030811879241e-07
2.35498625518916e-07
2.38593239394925e-07
2.40348738655703e-07
2.41297869059312e-07
2.41787772772078e-07
2.42029574482336e-07
2.42143868721192e-07
2.4219567239824e-07
2.42218204181626e-07
2.42227606639495e-07
2.4223136208965e-07
2.42232787238142e-07
2.42233290986909e-07
2.42233446864656e-07
2.42233475403334e-07
2.42233445658012e-07
2.42233347142749e-07
2.42233084132543e-07
2.42232381429088e-07
2.42230555946373e-07
2.42225983125884e-07
2.42214946509089e-07
2.42189277182986e-07
2.42131759455039e-07
2.4200769672307e-07
2.41750405460968e-07
2.41238095624218e-07
2.40260235769863e-07
2.38474036136638e-07
2.35357013342999e-07
2.3016970389663e-07
2.21951535665317e-07
2.09577900752731e-07
1.91900898440226e-07
1.67974621898733e-07
1.37329644853452e-07
1.00224917191705e-07
5.78421879794104e-08
1.36493505611625e-08
7.04109762316309e-10
1.66607748476282e-08
3.82342546569293e-07
1.67271951398988e-06
2.91867331219187e-06
4.01748651154219e-06
4.93026755718359e-06
5.64614385711387e-06
6.17675364792002e-06
6.54885584546242e-06
6.79606187357651e-06
6.95186992560787e-06
7.04517939285378e-06
7.09836170797143e-06
7.12725710792374e-06
7.14224779579992e-06
7.14968544380152e-06
7.15321981056823e-06
7.15483043037659e-06
7.15553485374111e-06
7.15583050601798e-06
7.15594933229815e-06
7.15599476074769e-06
7.15601098565431e-06
7.15601610133851e-06
7.15601710848091e-06
7.1560162106652e-06
7.15601307081226e-06
7.1560046656229e-06
7.15598231291202e-06
7.15592456459467e-06
7.15578067538089e-06
7.15543517117489e-06
7.15463559448655e-06
7.15285278572572e-06
7.14902606219769e-06
7.1411281764465e-06
7.1254771186244e-06
7.09574320875769e-06
7.0416774377301e-06
6.94774446776381e-06
6.79207883963914e-06
6.54643545815462e-06
6.1779371802892e-06
5.65324301187386e-06
4.94512375324215e-06
4.04039002800242e-06
2.94707988126525e-06
1.69966421745138e-06
3.92850693564376e-07
1.73691268873787e-08
5.89542023070886e-08
1.71314563878622e-06
8.48738665000667e-06
1.47868176826091e-05
2.03103774751582e-05
2.48846847369695e-05
2.84660257304525e-05
3.11191690798066e-05
3.29808126639347e-05
3.42194371058039e-05
3.50018512208703e-05
3.54717314571917e-05
3.57404094707836e-05
3.58869099994058e-05
3.59632031494313e-05
3.60012078460888e-05
3.6019342987883e-05
3.60276429601569e-05
3.6031289375116e-05
3.60328270957946e-05
3.60334483838051e-05
3.60336874264925e-05
3.60337735749286e-05
3.60338011826197e-05
3.60338069505985e-05
3.60338024951839e-05
3.60337861268245e-05
3.60337421582808e-05
3.60336256037718e-05
3.60333256416174e-05
3.60325809354911e-05
3.60307988313475e-05
3.60266881398657e-05
3.60175520485001e-05
3.59980042516487e-05
3.59577870468603e-05
3.58783363506967e-05
3.57278504076051e-05
3.54550052493804e-05
3.49822294189922e-05
3.42005791761623e-05
3.29694439518687e-05
3.11249084230849e-05
2.84997396610625e-05
2.49550233057576e-05
2.04186806058073e-05
1.49209705533389e-05
8.61421064814444e-06
1.75615616201318e-06
6.10897198168124e-08
1.04100059496537e-07
3.04616154908133e-06
1.51499353021343e-05
2.63107447318632e-05
3.60427025077229e-05
4.40676383853093e-05
5.03303461348701e-05
5.49595004754624e-05
5.82031408124899e-05
6.03597831941872e-05
6.17219197539567e-05
6.25402018325866e-05
6.30083902741866e-05
6.32639000538357e-05
6.33971041495394e-05
6.34635399677855e-05
6.34952853407317e-05
6.3509836258892e-05
6.35162395025072e-05
6.35189448189532e-05
6.35200402328253e-05
6.3520462870384e-05
6.35206158117294e-05
6.35206652055239e-05
6.35206758601346e-05
6.35206684046225e-05
6.35206402486808e-05
6.35205642183066e-05
6.35203624638467e-05
6.35198428806116e-05
6.35185520390907e-05
6.35154608893535e-05
6.35083260403076e-05
6.34924593310773e-05
6.34584929890283e-05
6.33885805814835e-05
6.32504145689541e-05
6.29886336163813e-05
6.25138575939514e-05
6.16909078605586e-05
6.03296964200094e-05
5.81842845912965e-05
5.4966627907593e-05
5.03801297977874e-05
4.41733215939886e-05
3.62061545505072e-05
2.65127884786076e-05
1.53388754382815e-05
3.10873965807418e-06
1.07148980845109e-07
1.48464215712145e-07
4.34664631946797e-06
2.15767510221905e-05
3.73611380422105e-05
5.10599929215717e-05
6.23144440552107e-05
7.10733892044011e-05
7.75353450721421e-05
8.20578752944922e-05
8.50630583242328e-05
8.69609056774535e-05
8.81012843646632e-05
8.87541041273625e-05
8.91106383779872e-05
8.92966795664358e-05
8.93895670947873e-05
8.94340056428003e-05
8.9454402136415e-05
8.94633913356544e-05
8.946719576407e-05
8.94687394266232e-05
8.94693366465289e-05
8.9469553669669e-05
8.94696243158251e-05
8.94696400001268e-05
8.9469630072964e-05
8.94695914006229e-05
8.94694863037909e-05
8.9469207124405e-05
8.94684876630402e-05
8.94666989386378e-05
8.9462412218543e-05
8.94525103101361e-05
8.94304744591997e-05
8.93832711756044e-05
8.92860576791785e-05
8.90938407295016e-05
8.8729488664319e-05
8.80684144191635e-05
8.6922065158032e-05
8.50249964252035e-05
8.20330621241724e-05
7.75416376956088e-05
7.11309472243059e-05
6.24392081176015e-05
5.1253976944758e-05
3.76006699438425e-05
2.17993441371906e-05
4.42027651280063e-06
1.52083821006925e-07
1.90981202258721e-07
5.59214247056215e-06
2.76883010953825e-05
4.78128173795224e-05
6.52057333318769e-05
7.94490298588938e-05
9.05078244046415e-05
9.86532992645671e-05
0.0001043484617116
0.000108131076988133
0.000110519748480522
0.000111955422705745
0.000112777701048518
0.000113227098483562
0.000113461798238012
0.000113579097983803
0.000113635279622149
0.000113661099026769
0.000113672494714828
0.000113677325738063
0.000113679290002091
0.000113680052082291
0.000113680330232195
0.000113680421536638
0.000113680442365959
0.000113680430481114
0.000113680382464122
0.000113680251081921
0.000113679901793843
0.000113679001267396
0.000113676761117595
0.000113671389033783
0.000113658971664231
0.000113631319916785
0.00011357205130196
0.000113449924341848
0.000113208333164348
0.000112750201062718
0.000111918658827411
0.00011047616024608
0.000108087969326691
0.000104319356780802
9.86575484615865e-05
9.0567228404381e-05
7.95807336311307e-05
6.54116944019369e-05
4.80672244057063e-05
2.79243640413886e-05
5.6711173253063e-06
1.94940349915648e-07
2.31045555962639e-07
6.76624921677915e-06
3.34191035763541e-05
5.75658250814915e-05
7.83580058153329e-05
9.53370197647762e-05
0.000108492979327288
0.000118169867918608
0.000124930278787852
0.000129418798780511
0.000132253233523444
0.000133957297974127
0.000134933779571542
0.000135467811773963
0.00013574694124226
0.00013588657945392
0.000135953532763106
0.000135984340140163
0.0001359979562763
0.000136003738084554
0.000136006093760204
0.000136007010307159
0.000136007346365028
0.00013600745765266
0.000136007483726834
0.000136007470363333
0.000136007414066014
0.000136007259015084
0.000136006846588788
0.000136005783087271
0.000136003136506239
0.000135996786425137
0.000135982099953288
0.00013594937647068
0.00013587919955404
0.00013573452564262
0.000135448210952129
0.000134905067826267
0.00013391889491155
0.000132207594088367
0.000129373337759091
0.000124898722466369
0.000118171820226987
0.000108550448373079
9.54671965440573e-05
7.85626632648014e-05
5.78189034746735e-05
3.36544130556961e-05
6.84658442896867e-06
2.35177567885155e-07
2.68225858883048e-07
7.8566657162837e-06
3.87186403710044e-05
6.65459635887655e-05
9.04294493644376e-05
0.000109885089582614
0.000124933712186444
0.000135990021763135
0.000143709023780065
0.000148832637189262
0.000152068277345204
0.000154014115149314
0.000155129682601619
0.000155740173517601
0.00015605951582358
0.000156219415672667
0.000156296162848633
0.000156331517830998
0.000156347164776056
0.000156353819477511
0.000156356536277209
0.00015635759635785
0.000156357986856271
0.000156358117363819
0.000156358148766184
0.000156358134338204
0.000156358070714484
0.00015635789445629
0.000156357425523721
0.000156356216376718
0.000156353206696563
0.000156345982478088
0.000156329266143949
0.000156292001199835
0.000156212046999561
0.000156047145913457
0.000155720677998294
0.000155101160823839
0.000153975989723301
0.000152022940122443
0.000148787306386223
0.000143677019945188
0.000135990290160002
0.000124987403170086
0.000110008567903484
9.06241832358743e-05
6.67869774667212e-05
3.89437043509644e-05
7.93562357344024e-06
2.72409358847813e-07
3.02222777848633e-07
8.85469521476708e-06
4.35520386906867e-05
7.47051682300721e-05
0.000101367032761718
0.000123040151386408
0.000139779134839315
0.000152065606247584
0.000160638927227266
0.000166328562635718
0.000169921970004621
0.000172083614161926
0.000173323493322994
0.0001740024318713
0.000174357841559631
0.000174535953280563
0.000174621524784865
0.000174660988386203
0.000174678475914167
0.000174685924788493
0.000174688971804695
0.000174690164099844
0.000174690605348871
0.000174690754188307
0.00017469079094782
0.000174690775842315
0.000174690705747021
0.000174690510594153
0.000174689991438607
0.000174688653139137
0.000174685321751967
0.000174677322935096
0.000174658806725506
0.000174617511512697
0.000174528873123447
0.000174345991962055
0.000173983806870453
0.000173296314034436
0.000172047370680629
0.000169878966052139
0.000166285635487531
0.000160608590886582
0.000152065526612191
0.000139828861486656
0.00012315459260649
0.000101547209475046
7.49279776846744e-05
4.37612221800548e-05
8.93052180913134e-06
3.06372683624782e-07
3.32858029166332e-07
9.75507946585167e-06
4.79000155703603e-05
8.2020808717074e-05
0.000111150583540239
0.000134787220140251
0.000153019993307349
0.000166392398817601
0.000175719609180909
0.000181908839444808
0.000185818243911775
0.000188170701148981
0.000189520646508376
0.00019026028904955
0.000190647746622374
0.00019084207540622
0.000190935523655358
0.000190978664703996
0.00019099780488737
0.000191005969610723
0.000191009315798838
0.000191010628771963
0.000191011116901223
0.000191011283041552
0.000191011325129131
0.000191011309695722
0.000191011233910212
0.00019101102203339
0.000191010458577616
0.00019100900670429
0.000191005392791042
0.000190996713816387
0.000190976616452316
0.000190931778223665
0.000190835499731614
0.0001906367888878
0.000190243138791046
0.000189495732226494
0.000188137651541495
0.00018577929291213
0.000181870361063856
0.00017569308665184
0.000166393844235172
0.000153066885075739
0.000134892581279739
0.000111314815706033
8.22230004719105e-05
4.8090789865884e-05
9.82681893661233e-06
3.36919583282789e-07
3.60066673287065e-07
1.05558133177942e-05
5.1758049797423e-05
8.84938769820838e-05
0.000119790041326577
0.000145145931793999
0.000164684667744946
0.000179005769344246
0.000188991528022049
0.000195617347602698
0.000199803121699501
0.000202322654735373
0.000203769112220309
0.000204562073255504
0.000204977733846138
0.000205186364957546
0.000205286776770763
0.00020533317782661
0.000205353787727823
0.000205362591538457
0.00020536620619282
0.000205367628268742
0.000205368159286589
0.000205368341574294
0.000205368388880487
0.000205368373408343
0.000205368292674462
0.000205368066107871
0.000205367463900223
0.000205365913043166
0.000205362053326814
0.000205352782838906
0.000205331309978969
0.000205283387719875
0.000205180454340668
0.000204967946133942
0.000204546855224175
0.000203747173576675
0.000202293836170757
0.000199769637948241
0.000195585107716124
0.000188970902660803
0.000179010942788207
0.000164730799588394
0.000145243895846901
0.000119939426052745
8.8675910794415e-05
5.19303008256919e-05
1.06231480724234e-05
3.64010305746514e-07
3.83886238225445e-07
1.12578479614767e-05
5.51348877254353e-05
9.41462393264701e-05
0.00012732164875645
0.000154165937356229
0.000174834014190436
0.000189975159612748
0.000200530231721374
0.000207533694856037
0.000211958746059183
0.000214623108819917
0.000216153352656599
0.000216992681792399
0.000217432916879718
0.00021765403741115
0.000217760544915411
0.000217809807520989
0.000217831711618652
0.000217841080390538
0.000217844933597204
0.000217846453343555
0.000217847023206102
0.000217847220397751
0.000217847272729455
0.00021784725745649
0.000217847172465943
0.000217846933107754
0.000217846297307751
0.000217844661003069
0.000217840589537972
0.000217830809798024
0.000217808152530948
0.000217757573325294
0.00021764890310609
0.00021742449377347
0.000216979721049735
0.000216134906388677
0.000214599300844124
0.000211931843456422
0.000207509199203359
0.000200517427867663
0.000189986385540781
0.000174882038055725
0.00015425935241465
0.000127459028937093
9.43106370188976e-05
5.52902710691505e-05
1.13209487643694e-05
3.87702574109748e-07
4.04442081431546e-07
1.18646805265404e-05
5.8050542096695e-05
9.90171997886892e-05
0.000133803371438598
0.000161921484683117
0.00018355536744404
0.000199397703441009
0.000210439733501093
0.000217766441037105
0.000222396513301234
0.000225185133542022
0.000226787373770713
0.000227666616962123
0.00022812804801793
0.000228359964687035
0.000228471754372629
0.000228523503484307
0.000228546535758572
0.000228556398945456
0.000228560461993846
0.000228562068293865
0.000228562672976064
0.000228562883770339
0.000228562940865427
0.000228562925976183
0.000228562837366299
0.000228562586976779
0.0002285619223414
0.000228560213018639
0.000228555961029496
0.000228545747469039
0.000228522081164824
0.000228469237408077
0.000228355674822869
0.00022812111054081
0.00022765612080372
0.000226772761346096
0.000225166876466701
0.000222377012879035
0.000217750887813382
0.000210436430003651
0.000199417236482005
0.000183608172186488
0.000162013846771364
0.000133932657831171
9.91678053722102e-05
5.81918930593461e-05
1.19240648708531e-05
4.08137022625881e-07
4.21929968034615e-07
1.23818606209222e-05
6.05339663799845e-05
0.000103159648743601
0.000139309872461284
0.000168505542637564
0.000190956076893554
0.000207391369904797
0.000218845401215458
0.000226445828312205
0.000231249707065465
0.000234143812483822
0.000235807270650848
0.000236720514242055
0.000237200037466815
0.000237441189995636
0.000237557509678662
0.000237611397153358
0.000237635402768367
0.000237645694187947
0.000237649939925287
0.000237651622134771
0.000237652257698894
0.000237652480767836
0.000237652542310615
0.000237652527940681
0.000237652436293581
0.000237652176492556
0.00023765148736571
0.00023764971631413
0.000237645312095268
0.000237634733035764
0.000237610216610335
0.000237555464188828
0.000237437775878369
0.000237194643327625
0.000236712587380464
0.000235796678082258
0.000234131428368656
0.000231238149865444
0.000226440094975152
0.000218852963726694
0.000207421235205464
0.000191016497670904
0.000168600549401667
0.00013943545633741
0.000103300985252944
6.0664780778237e-05
1.24382632699873e-05
4.25520014264095e-07
4.36597279980543e-07
1.28164547038941e-05
6.26205906294044e-05
0.000106636071542664
0.000143927369937638
0.000174023829949232
0.000197156960122277
0.000214088029905446
0.000225886771163426
0.00023371643497745
0.00023866605416763
0.000241648740717424
0.000243363692770125
0.000244305589671876
0.000244800391401325
0.000245049361226938
0.000245169524774882
0.000245225231831572
0.000245250068370142
0.000245260726803275
0.000245265129918153
0.000245266877997434
0.000245267540654713
0.000245267774672952
0.000245267840309556
0.000245267826551625
0.000245267732393875
0.000245267464658149
0.000245266754965545
0.000245264932322407
0.000245260401204804
0.000245249517757628
0.000245224293380362
0.00024516795087897
0.000245046823662465
0.000244796545390822
0.000244300249935277
0.000243357171831647
0.000241642357671931
0.000238662721207717
0.000233721078917
0.000225906209423777
0.000214129905087484
0.00019722755160408
0.000174125023586258
0.000144053646759893
0.00010677281377505
6.274459151712e-05
1.28707154827025e-05
4.40105315658754e-07
4.48724262506861e-07
1.31765085769235e-05
6.43498880780428e-05
0.000109514664375241
0.000147748673727513
0.000178589077327864
0.000202286025414325
0.000219626813131592
0.00023171066442329
0.000239730138249206
0.00024480059270967
0.000247856836661548
0.000249614623712689
0.00025058040196279
0.000251087964810247
0.000251343479124456
0.000251466868924525
0.000251524107562254
0.000251549645799961
0.000251560615397002
0.000251565152627895
0.000251566957248301
0.000251567643413927
0.000251567887087404
0.000251567956441966
0.000251567943353854
0.000251567847157661
0.000251567572820764
0.000251566846072294
0.000251564980836
0.000251560345224899
0.000251549211374534
0.000251523404621502
0.000251465753559039
0.000251341794710315
0.000251085629266992
0.000250577596421601
0.000249612114534341
0.000247856416666113
0.000244805532749444
0.000239745412968844
0.000231742617666966
0.000219681957002505
0.000202368906241661
0.000178699586216444
0.000147879688446675
0.000109651238242174
6.44706886599112e-05
1.32294815553141e-05
4.52176007497552e-07
4.5860650656466e-07
1.34705424702716e-05
6.57631128753943e-05
0.000111865760267347
0.000150868644211138
0.000182315792889201
0.000206472752570878
0.000224148058692449
0.000236464918682306
0.000244639705526347
0.00024980917608953
0.000252925793914456
0.00025471880300962
0.000255704257774101
0.000256222357999493
0.000256483289327431
0.000256609356577181
0.000256667869971868
0.000256693994191164
0.000256705224680126
0.000256709874941812
0.000256711727559476
0.000256712433895217
0.000256712685985297
0.00025671275867391
0.000256712746285133
0.000256712648469728
0.000256712368722891
0.000256711628022737
0.000256709728090506
0.000256705007571823
0.000256693670433495
0.0002566673908618
0.000256608676895717
0.000256482416550613
0.000256221463106708
0.00025570387896066
0.000254720157610971
0.000252931163639231
0.000249822240653338
0.000244665591887494
0.000236509668937392
0.000224217286784137
0.000206569521389006
0.000182438172302763
0.000151007858529956
0.000112006069666639
6.58839786039606e-05
1.35230287361863e-05
4.62027758016677e-07
4.66539546152623e-07
1.37071042614689e-05
6.69013105523485e-05
0.000113758709754084
0.000153380245154917
0.000185315721960912
0.000209843136952309
0.000227788074464262
0.000240292957798032
0.000248593241255961
0.000253842843217172
0.000257008405332881
0.000258830023513903
0.000259831494243254
0.000260358191198569
0.000260623552916104
0.000260751815914867
0.000260811377870025
0.00026083798574463
0.000260849432450942
0.000260854176882023
0.000260856069780649
0.000260856793226019
0.000260857052569524
0.000260857128212941
0.000260857116531329
0.000260857017465095
0.000260856733361644
0.000260855981426672
0.000260854053656358
0.000260849265165119
0.000260837765399985
0.000260811107499405
0.000260751542494432
0.000260623437956548
0.000260358644918569
0.000259833396123597
0.000258835029712812
0.000257019289063374
0.000253863727525701
0.000248629491799509
0.000240350468217473
0.000227871777348851
0.000209954854436504
0.00018545188656755
0.000153530418173516
0.000113905982828908
6.70250159000245e-05
1.37598082763355e-05
4.69954252119556e-07
4.7280610141018e-07
1.38943966198856e-05
6.78036626592474e-05
0.00011525930104312
0.000155371290019486
0.000187694110832061
0.000212515614002743
0.00023067482823542
0.000243329326452096
0.000251729619751778
0.000257043187268576
0.000260247892938266
0.000262092438646941
0.000263106773531464
0.000263640392268509
0.000263909330582632
0.000264039371263023
0.000264099784817788
0.000264126786907127
0.000264138410599787
0.000264143232535193
0.000264145158836597
0.000264145896626485
0.000264146162150432
0.000264146240384148
0.000264146229401521
0.000264146129404873
0.000264145841866652
0.000264145081052881
0.000264143131345313
0.000264138289388664
0.000264126661752685
0.000264099706214737
0.000264039471039013
0.000263909912682628
0.000263642089666373
0.000263110786790381
0.000262100843583436
0.000260263946330008
0.000257071474985902
0.000251775812773979
0.000243399299579464
0.000230773025115096
0.000212642840392564
0.000187845345323618
0.000155534456218251
0.000115416039909241
6.79324314218334e-05
1.39479041251965e-05
4.76235225376293e-07
4.77666154942394e-07
1.40399841399772e-05
6.85061869735953e-05
0.000116427745067713
0.000156921908475463
0.000189546802222488
0.000214597893234161
0.000232924600925127
0.000245696221375267
0.00025417493643107
0.000259538756180224
0.000262774277365514
0.000264636913566143
0.000265661423645118
0.000266200531896074
0.000266472314883139
0.000266603773863012
0.000266664869183312
0.000266692188092226
0.000266703954678284
0.000266708839554679
0.000266710793200906
0.000266711542871244
0.000266711813602401
0.000266711894084838
0.000266711883782113
0.000266711783131172
0.000266711492958571
0.000266710725294634
0.000266708758694115
0.000266703875617978
0.000266692149617037
0.000266664964856353
0.000266604212752785
0.000266473531188842
0.000266203363651381
0.000265667369883521
0.000264648446079479
0.000262795120636253
0.000259573965548517
0.000254230535763475
0.000245778170910686
0.000233037018816653
0.000214740767702507
0.000189713832193918
0.000157099431936502
0.00011659575768934
6.86417000702237e-05
1.40947580190334e-05
4.8112722353497e-07
4.81349760688887e-07
1.41505783122434e-05
6.90407812642825e-05
0.00011731720125018
0.00015810269904053
0.000190958121367465
0.000216184656008313
0.000234639553454972
0.000247500969153307
0.000256039926643762
0.000261442433650988
0.000264701735444008
0.000266578368782429
0.000267610774048152
0.000268154154795454
0.000268428159102673
0.000268560729544795
0.000268622361227637
0.000268649930486306
0.000268661810575528
0.00026866674577812
0.000268668721486627
0.000268669480867495
0.00026866975593618
0.000268669838353784
0.000268669828704888
0.000268669727635859
0.000268669435519625
0.000268668662746375
0.000268666683554803
0.000268661769843564
0.00026864997046742
0.000268622614327856
0.000268561474707687
0.000268429948877491
0.0002681580147046
0.000267618478500171
0.000266592759878116
0.000264726984574067
0.000261484062446464
0.00025610434275452
0.000247594298131181
0.000234765721180491
0.000216343002533112
0.000191141224333929
0.000158295380083238
0.000117497691108424
6.91842331757936e-05
1.42069678367638e-05
4.8485694229124e-07
4.84052261300696e-07
1.42318917109309e-05
6.9434571785742e-05
0.000117972779894935
0.000158973484576857
0.000191999455707165
0.000217356010672083
0.000235906094605865
0.000248834334002634
0.000257418233085494
0.000262849680251297
0.000266126824745908
0.000268013994661174
0.000269052364304769
0.000269598985068734
0.000269874680847527
0.000270008101402973
0.000270070145322602
0.000270097908044907
0.000270109876410221
0.000270114851070897
0.000270116844267626
0.000270117611466305
0.000270117890105548
0.00027011797417595
0.00027011796515152
0.000270117863865676
0.000270117570401512
0.000270116794016216
0.000270114805917649
0.000270109870516551
0.000270098019025925
0.000270070540609964
0.000270009123127373
0.00026987698901635
0.000269603776420193
0.000269061666791987
0.000268030995450012
0.000266156119432871
0.000262897247195387
0.000257490881313445
0.000248938412444743
0.000236045440876305
0.000217529455043273
0.000192198591993626
0.000159181694695439
0.000118166468622083
6.9586756002975e-05
1.42901502123523e-05
4.8761680026067e-07
4.85931454073244e-07
1.42885487801585e-05
6.97095111793356e-05
0.000118430932537877
0.000159582556902305
0.000192728396310004
0.000218176560498228
0.000236793896751414
0.000249769496831785
0.000258385359620698
0.000263837470368638
0.000267127409638319
0.000269022170689558
0.000270064859293512
0.00027061383909577
0.000270890773655406
0.000271024820728734
0.000271087170536098
0.000271115077905935
0.000271127112860307
0.00027113211761595
0.000271134124348828
0.000271134897722917
0.000271135179262383
0.000271135264734934
0.000271135256304592
0.000271135154973596
0.000271134860678002
0.000271134081981927
0.000271132088173446
0.000271127138824959
0.000271115253569102
0.00027108769513817
0.000271026093926726
0.000270893553636868
0.000270619479818647
0.000270075623182039
0.00026904156727828
0.000267160436925799
0.00026389055090779
0.00025846571176615
0.000249883732528196
0.000236945842438021
0.000218364644166123
0.000192943340884317
0.000159806379403031
0.000118638192103067
6.98709159703614e-05
1.43488548924938e-05
4.89562282089236e-07
4.87106184934755e-07
1.43240387201912e-05
6.98821623601299e-05
0.000118719129625618
0.000159966281999008
0.000193188292243113
0.000218694921311409
0.000237355386557343
0.000250361526230497
0.000258998128067546
0.000264463739038789
0.000267762101473288
0.000269661901351946
0.000270707482414004
0.000271258057164242
0.000271535837733339
0.000271670317263677
0.000271732880632799
0.000271760890262414
0.000271772972972743
0.000271777999692496
0.000271780016530093
0.000271780794653338
0.000271781078509782
0.00027178116516434
0.000271781157298638
0.000271781056070588
0.000271780761398464
0.000271779981546989
0.000271777984873694
0.000271773028460427
0.000271761125708432
0.000271733524612994
0.000271671822590952
0.000271539053570488
0.000271264483726377
0.000270719601457741
0.00026968352635021
0.000267798614268201
0.000264521993891709
0.000259085754268323
0.000250485423343772
0.000237519422746036
0.000218897199822791
0.000193418751161513
0.000160205638758651
0.000118940103689633
7.00530603855982e-05
1.43865168098223e-05
4.9081054241086e-07
4.87655864892541e-07
1.43406963324248e-05
6.99636065116314e-05
0.000118855727623375
0.000160148938935522
0.000193408068073705
0.00021894352381152
0.000237625536117502
0.000250647161037141
0.000259294454198421
0.000264767152971832
0.000268070026503808
0.000269972581936245
0.000271019780101355
0.000271571267275067
0.00027184954343299
0.000271984282570434
0.000272046977462272
0.000272075051824456
0.000272087165717664
0.000272092207320727
0.000272094231328542
0.000272095013017348
0.000272095298727099
0.000272095386395216
0.00027209537907041
0.000272095278058448
0.00027209498338298
0.000272094203377183
0.000272092206386212
0.00027208724916964
0.00027207534381206
0.000272047734266037
0.000271986007261369
0.000271853171336998
0.000271578437470602
0.000271033183320158
0.000269996322691631
0.000268109856967028
0.000264830349171553
0.00025938905382852
0.00025078036383712
0.000237801283154554
0.000219159642190224
0.000193653768261786
0.000160403688025832
0.000119090425414178
7.01441248204493e-05
1.44054324236787e-05
4.91439789006502e-07
4.87620389515613e-07
1.43396956388539e-05
6.99594132542246e-05
0.000118849936905798
0.000160142692411662
0.000193402200651682
0.000218938589836289
0.00023762183525699
0.000250644777329501
0.000259293309361876
0.000264767067165827
0.000268070776360936
0.000269973945896446
0.000271021567254696
0.000271573329237168
0.000271851774416091
0.000271986612540852
0.000272049362988839
0.000272077467490879
0.000272089597385082
0.000272094647445878
0.000272096676000533
0.000272097460221543
0.0002720977473928
0.000272097835935815
0.000272097829131
0.000272097728429806
0.000272097434085507
0.000272096654862515
0.000272094659992405
0.000272089708022649
0.000272077814478877
0.000272050229570903
0.000271988550705808
0.000271855803382406
0.000271581223367779
0.000271036221067425
0.000269999748131699
0.000268113841466443
0.000264835084690932
0.000259394721576594
0.000250787086579026
0.000237809066641517
0.000219168315510368
0.000193662933107801
0.000160412681467678
0.000119098291721756
7.01495817898615e-05
1.44067489192766e-05
4.91489047251946e-07
4.87000384768358e-07
1.43210555436512e-05
6.9869659474386e-05
0.000118701842495357
0.000159947610074946
0.000193170732787628
0.000218680142066528
0.000237344297582848
0.000250354391249405
0.000258994720766363
0.000264463524217324
0.000267764409380155
0.000269666065658099
0.000270712927021432
0.00027126433375628
0.000271542626310565
0.000271677405788908
0.000271740137524839
0.000271768238483383
0.000271780369655715
0.000271785421966299
0.000271787452540182
0.00027178823829778
0.000271788526550424
0.000271788615831599
0.000271788609526081
0.00027178850923424
0.000271788215571561
0.000271787438111642
0.000271785447902377
0.000271780507451546
0.00027176864060012
0.000271741114320104
0.00027167955839274
0.000271547058113968
0.000271272954656144
0.000270728835321907
0.000269693933666252
0.000267810711911194
0.000264536359133695
0.000259102929153039
0.000250505770043556
0.000237542947064176
0.000218923373125756
0.000193446361357872
0.000160232684048945
0.000118963714461691
7.00694071806467e-05
1.43904549617284e-05
4.90957789573434e-07
4.85757557129337e-07
1.42836488281649e-05
6.96889548763279e-05
0.000118402428108003
0.000159551680646264
0.000192699285073567
0.000218152011148619
0.00023677546385127
0.000249757659311973
0.000258379769440708
0.000263837250499329
0.000267131445958473
0.000269029346292599
0.000270074203993101
0.000270624595418595
0.000270902399626999
0.000271036956584302
0.000271099592724777
0.000271127655418296
0.000271139772751768
0.000271144820956429
0.00027114685096312
0.000271147637234264
0.000271147926173397
0.0002711480160493
0.00027114801022476
0.000271147910458106
0.000271147617873781
0.000271146843267536
0.000271144860513391
0.000271139938429783
0.000271128114431186
0.000271100683548482
0.000271039331202879
0.000270907248299656
0.000270633967422796
0.000270091406236114
0.000269059339571978
0.000267181068652858
0.000263915008158435
0.000258494891911163
0.00024991821804636
0.000236985604358182
0.000218408748583642
0.000192989711701596
0.000159851640054251
0.000118677558409553
6.98980696796614e-05
1.4355380668695e-05
4.89806151967373e-07
4.83814592346606e-07
1.42252011496282e-05
6.94064521702945e-05
0.000117933598509742