/*--------------------------------*- C++ -*----------------------------------*\
  =========                 |
  \\      /  F ield         | OpenFOAM: The Open Source CFD Toolbox
   \\    /   O peration     | Website:  https://openfoam.org
    \\  /    A nd           | Version:  10
     \\/     M anipulation  |
\*---------------------------------------------------------------------------*/
FoamFile
{
    format      ascii;
    class       volScalarField;
    location    "8.2";
    object      nut;
}
// * * * * * * * * * * * * * * * * * * * * * * * * * * * * * * * * * * * * * //

dimensions      [0 2 -1 0 0 0 0];

internalField   nonuniform List<scalar> 
2500
(
5.27362413972262e-15
1.03824401212304e-13
4.45037330320459e-13
7.76114349930161e-13
1.06779776952983e-12
1.30963781738367e-12
1.49884096650172e-12
1.63866323334819e-12
1.73638193881961e-12
1.80105374052658e-12
1.84164523821017e-12
1.86584610534912e-12
1.87957464481062e-12
1.88699712636502e-12
1.89082831657454e-12
1.89271927852751e-12
1.89361309315685e-12
1.89401821576109e-12
1.89419442507729e-12
1.89426795807766e-12
1.89429732952981e-12
1.89430847698523e-12
1.89431241839566e-12
1.89431363856329e-12
1.894313862955e-12
1.89431363126308e-12
1.89431286109263e-12
1.89431080422042e-12
1.89430530843478e-12
1.89429103180341e-12
1.89425526981748e-12
1.8941689582161e-12
1.89396821500692e-12
1.89351840842965e-12
1.89254820145158e-12
1.89053610962141e-12
1.88652969795373e-12
1.87888254474388e-12
1.86491391226901e-12
1.84053779445337e-12
1.79997129383456e-12
1.73570232936999e-12
1.63893596710613e-12
1.500695131163e-12
1.31358255410163e-12
1.07392773945417e-12
7.83757535347048e-13
4.52317715838599e-13
1.06733823367726e-13
5.50632066001506e-15
5.22580326079029e-13
2.69848831490276e-11
1.18067331419531e-10
2.06026184200106e-10
2.83603647940705e-10
3.48049366820673e-10
3.98593557656897e-10
4.3605713646115e-10
4.62329212957604e-10
4.79782938248715e-10
4.90783515570735e-10
4.97371427359265e-10
5.01126220641532e-10
5.03166288794352e-10
5.0422465304048e-10
5.04749759617648e-10
5.04999289100241e-10
5.05113000329158e-10
5.05162733597488e-10
5.05183607306433e-10
5.05191996985967e-10
5.05195204713628e-10
5.05196350592631e-10
5.05196712042138e-10
5.05196783399926e-10
5.05196720214458e-10
5.0519649863902e-10
5.05195905272558e-10
5.05194327160113e-10
5.05190250051963e-10
5.05180091300463e-10
5.0515569833631e-10
5.05099247575011e-10
5.04973379867343e-10
5.04703209685594e-10
5.04145609777799e-10
5.03040621722214e-10
5.00941351350239e-10
4.97124179635837e-10
4.90492239787298e-10
4.79501707247478e-10
4.62158294479422e-10
4.36140648793861e-10
3.9909470971078e-10
3.49098148824274e-10
2.85220501814505e-10
2.08031390326206e-10
1.19969150930983e-10
2.77264981638543e-11
5.44799168081683e-13
1.85397381058254e-12
4.8492895365936e-10
1.66860169022318e-07
2.90734510076395e-07
3.99363770349693e-07
4.89329032613837e-07
5.59766387939813e-07
6.1194817136087e-07
6.48562582302247e-07
6.72923340399873e-07
6.88311365575055e-07
6.9755256744379e-07
7.02836640500255e-07
7.05717829907063e-07
7.07218256188238e-07
7.07965674073211e-07
7.08322326085688e-07
7.08485555697579e-07
7.08557267197423e-07
7.08587508643803e-07
7.08599727389534e-07
7.08604428856548e-07
7.08606123448799e-07
7.0860666668091e-07
7.08606780370976e-07
7.08606692960411e-07
7.08606371191244e-07
7.08605506598638e-07
7.08603214512107e-07
7.08597315480852e-07
7.08582670019008e-07
7.08547622853123e-07
7.0846678109011e-07
7.08287108204947e-07
7.079026742812e-07
7.07111743849321e-07
7.05549218055924e-07
7.02589645251963e-07
6.9722361037741e-07
6.87925448657963e-07
6.72552427695328e-07
6.48338935017369e-07
6.12060959738904e-07
5.6042931557939e-07
4.90712182041601e-07
4.01493386849873e-07
2.93372159402762e-07
1.69353336761904e-07
4.97102553256817e-10
1.9211310500587e-12
3.2816902671297e-12
8.64390973116401e-10
2.98585896479583e-07
5.18606183288283e-07
7.10479955117094e-07
8.6870582927802e-07
9.92188015367002e-07
1.08346120812873e-06
1.14741562415585e-06
1.1899373540734e-06
1.2167937705064e-06
1.23292714744309e-06
1.24215792363061e-06
1.24719549175703e-06
1.24982168959104e-06
1.25113150216532e-06
1.25175737302656e-06
1.25204424810867e-06
1.25217048947428e-06
1.25222382545831e-06
1.25224542203482e-06
1.25225375481243e-06
1.25225677049863e-06
1.25225774465019e-06
1.25225795500157e-06
1.25225780826684e-06
1.25225725335851e-06
1.25225575458855e-06
1.25225177720349e-06
1.25224153380813e-06
1.25221608494799e-06
1.25215514268263e-06
1.25201447783171e-06
1.25170166158022e-06
1.25103200342659e-06
1.24965364794941e-06
1.24692962143934e-06
1.24176840828104e-06
1.23240774259809e-06
1.21618232047206e-06
1.1893441147698e-06
1.14704376669948e-06
1.08360159708426e-06
9.93169352011208e-07
8.70789154355558e-07
7.13701935835538e-07
5.2258841542704e-07
3.02309168451544e-07
8.82145171577088e-10
3.37779592544144e-12
4.68991913371848e-12
1.23598119574572e-09
4.26129107030149e-07
7.37933083451953e-07
1.00856532277644e-06
1.23091457577902e-06
1.40396269688186e-06
1.53162930477982e-06
1.62097852947224e-06
1.68034967698606e-06
1.7178436076205e-06
1.74037273129553e-06
1.7532696067322e-06
1.760313114691e-06
1.76398842408956e-06
1.76582343942164e-06
1.76670132917434e-06
1.76710426314038e-06
1.76728184483532e-06
1.76735700126634e-06
1.7673874964118e-06
1.76739929474345e-06
1.76740358235873e-06
1.76740497825533e-06
1.76740528833691e-06
1.76740509244245e-06
1.7674043286633e-06
1.76740225269556e-06
1.76739673782622e-06
1.76738252531718e-06
1.76734718961324e-06
1.76726250599383e-06
1.76706689387628e-06
1.76663157424583e-06
1.76569906683564e-06
1.76377859109894e-06
1.75998127676698e-06
1.75278332145966e-06
1.73972336639615e-06
1.71707627427892e-06
1.67959769801242e-06
1.62048824757548e-06
1.53175348763314e-06
1.4050995909042e-06
1.23337902094831e-06
1.01239687507834e-06
7.42663697015204e-07
4.30524310172978e-07
1.25691231311151e-09
4.80423310940529e-12
6.04271182629909e-12
1.59267276241345e-09
5.47686761232897e-07
9.45831577644113e-07
1.28995894906358e-06
1.57177667504788e-06
1.79058667290027e-06
1.95175271444376e-06
2.06443603609612e-06
2.1392774144251e-06
2.1865383455266e-06
2.21494357859873e-06
2.23121248433643e-06
2.24010383106324e-06
2.24474735236299e-06
2.24706811136158e-06
2.24817965307512e-06
2.24869048284842e-06
2.24891594279263e-06
2.24901152280803e-06
2.24905038504629e-06
2.24906546263523e-06
2.24907096592413e-06
2.24907277253015e-06
2.2490731847797e-06
2.24907294979063e-06
2.24907199994917e-06
2.24906940080698e-06
2.24906249057056e-06
2.24904467443446e-06
2.24900035445962e-06
2.24889407017941e-06
2.24864839665873e-06
2.2481013144266e-06
2.24692869784815e-06
2.24451243376272e-06
2.23973256666916e-06
2.23066840391191e-06
2.21421620761783e-06
2.18567594395199e-06
2.13842450164527e-06
2.06386013883229e-06
1.95183669209673e-06
1.79176183406852e-06
1.57438215705512e-06
1.29403324817496e-06
9.50863605112235e-07
5.52355020440413e-07
1.61515729821086e-09
6.16793429471304e-12
7.31881915990724e-12
1.92923787010135e-09
6.61771207293767e-07
1.13999314778746e-06
1.5517991523767e-06
1.88808745323994e-06
2.14865604139406e-06
2.34031677004718e-06
2.4742127887955e-06
2.56311138181749e-06
2.6192492046372e-06
2.65299912987902e-06
2.67233879215862e-06
2.68291550218721e-06
2.68844374906619e-06
2.69120932005624e-06
2.6925353444273e-06
2.69314548963692e-06
2.69341515890832e-06
2.69352966810669e-06
2.69357632238355e-06
2.69359447466623e-06
2.69360113039718e-06
2.69360333454434e-06
2.69360385101182e-06
2.6936035864278e-06
2.69360247156518e-06
2.69359940093673e-06
2.69359123305298e-06
2.69357017069122e-06
2.6935177554386e-06
2.69339199190225e-06
2.69310112450573e-06
2.69245303046236e-06
2.69106316227513e-06
2.68819785888283e-06
2.68252730777089e-06
2.67177015382238e-06
2.65223855090469e-06
2.61834530247439e-06
2.562211003281e-06
2.4735877810872e-06
2.34035538902288e-06
2.14979414950362e-06
1.8906654581161e-06
1.55585196096019e-06
1.14500425823067e-06
6.66429611163399e-07
1.95213481448578e-09
7.44965077816963e-12
8.50316758654753e-12
2.24180963868171e-09
7.67262890741283e-07
1.3187491349433e-06
1.79209036203425e-06
2.17768038431724e-06
2.47592775911679e-06
2.69505095882082e-06
2.8480319065603e-06
2.94957506455382e-06
3.01370087424264e-06
3.05226449930927e-06
3.07437333355025e-06
3.08647229812155e-06
3.09280114526708e-06
3.09597009589414e-06
3.09749109571448e-06
3.09819177092815e-06
3.09850186613124e-06
3.09863375050803e-06
3.09868759255717e-06
3.09870860140113e-06
3.09871634038355e-06
3.09871892683326e-06
3.09871954918088e-06
3.09871926327565e-06
3.09871800243474e-06
3.09871450943213e-06
3.09870521621354e-06
3.09868125333876e-06
3.09862160720729e-06
3.0984784362892e-06
3.09814714765815e-06
3.09740862024639e-06
3.09582406298212e-06
3.09255599699976e-06
3.08608593328676e-06
3.07380808449159e-06
3.0515089225958e-06
3.01280237101777e-06
2.94867668544783e-06
2.84739763979449e-06
2.69505626519519e-06
2.47699179411821e-06
2.18012742169269e-06
1.79594933623624e-06
1.32352475326778e-06
7.71721733540131e-07
2.26433112272957e-09
8.63573144534975e-12
9.58559015850703e-12
2.52774467366067e-09
8.63420477683384e-07
1.48106698401818e-06
2.00967849326639e-06
2.43938240178601e-06
2.77125885749861e-06
3.0148566414275e-06
3.18483513505578e-06
3.29764009266377e-06
3.36888424488746e-06
3.41174167745261e-06
3.43632387051646e-06
3.44978467963222e-06
3.45683111521107e-06
3.46036239649396e-06
3.46205895406393e-06
3.46284136655232e-06
3.46318807711345e-06
3.46333575952706e-06
3.46339616998737e-06
3.46341980850599e-06
3.46342855673581e-06
3.46343150763573e-06
3.4634322364206e-06
3.4634319369416e-06
3.46343054726082e-06
3.46342667821253e-06
3.46341638549639e-06
3.46338985237342e-06
3.46332380408996e-06
3.46316521862292e-06
3.46279811326736e-06
3.46197938690491e-06
3.46022202494608e-06
3.45659618438564e-06
3.44941541925572e-06
3.43578501238163e-06
3.41102311218483e-06
3.36803164626997e-06
3.29678901714258e-06
3.18423368693218e-06
3.01485506794796e-06
2.77224474832858e-06
2.44165130055793e-06
2.01325052487252e-06
1.48548386506394e-06
8.67566680184095e-07
2.54938406255043e-09
9.71716006051797e-12
1.05602917803273e-11
2.78551858237316e-09
9.49857511442107e-07
1.62649526634252e-06
2.20416350010187e-06
2.67289899039707e-06
3.03447068702332e-06
3.29965660989757e-06
3.48462262909489e-06
3.6073598176258e-06
3.68488621401427e-06
3.7315371421721e-06
3.75830751256901e-06
3.77297513678159e-06
3.78065868458413e-06
3.78451235492055e-06
3.78636549561223e-06
3.78722101077297e-06
3.78760057289138e-06
3.78776248445649e-06
3.78782884137572e-06
3.7878548783889e-06
3.78786455825917e-06
3.78786785290284e-06
3.78786868750769e-06
3.7878683814515e-06
3.78786687859588e-06
3.78786267699423e-06
3.78785150339849e-06
3.78782271196032e-06
3.78775104595218e-06
3.78757893655683e-06
3.78718039294848e-06
3.78629122159104e-06
3.78438195547802e-06
3.7804413863759e-06
3.77263503738206e-06
3.75781344841863e-06
3.73088175037338e-06
3.68411379510571e-06
3.6065967724914e-06
3.48409667812321e-06
3.29968528465838e-06
3.0354005955207e-06
2.67498837074529e-06
2.20742024237421e-06
1.63050451164895e-06
9.53639962463238e-07
2.80599846127735e-09
1.06891079907562e-11
1.14253607589996e-11
3.01460541857306e-09
1.02650213895251e-06
1.75508619537605e-06
2.375788188132e-06
2.87867611438025e-06
3.26619108034735e-06
3.55022354891907e-06
3.74827234799401e-06
3.87968295108022e-06
3.96269981260472e-06
4.01266992872332e-06
4.04135763293942e-06
4.05708448572781e-06
4.06532830954523e-06
4.06946610306294e-06
4.07145757618394e-06
4.07237785068877e-06
4.07278660777444e-06
4.07296121404956e-06
4.07303290356235e-06
4.07306110759934e-06
4.07307163926369e-06
4.07307525456011e-06
4.0730761927704e-06
4.07307588590618e-06
4.0730742847165e-06
4.07306979124164e-06
4.07305784768663e-06
4.07302708955431e-06
4.07295053975008e-06
4.07276667789186e-06
4.07234080571386e-06
4.07139036110017e-06
4.06934887770805e-06
4.0651341897558e-06
4.05678266650216e-06
4.04092252404077e-06
4.01209837080241e-06
3.96203573083408e-06
3.87904354027155e-06
3.74786329070363e-06
3.55032616445744e-06
3.26710603150851e-06
2.88061905450423e-06
2.37875091094658e-06
1.75869629150343e-06
1.02991796155198e-06
3.03383201519577e-09
1.15504680138892e-11
1.21822310328084e-11
3.21534281411245e-09
1.09355073382809e-06
1.86731302324837e-06
2.52532518388546e-06
3.05776390718213e-06
3.46770136039226e-06
3.76801566064239e-06
3.97736821770625e-06
4.11627701109199e-06
4.20404477958516e-06
4.25689052207873e-06
4.28724181548521e-06
4.30388930669428e-06
4.31262105263305e-06
4.31700681862587e-06
4.31911931778189e-06
4.32009640573381e-06
4.32053085749894e-06
4.32071668018599e-06
4.32079310567394e-06
4.32082324869629e-06
4.32083455147895e-06
4.32083846261396e-06
4.32083950056426e-06
4.32083919763183e-06
4.32083751191037e-06
4.32083276443261e-06
4.32082015383559e-06
4.32078769897544e-06
4.32070694450568e-06
4.32051297058617e-06
4.32006358025614e-06
4.31906037849391e-06
4.31690498349284e-06
4.31245398661368e-06
4.30363224013862e-06
4.28687594782725e-06
4.25641830928404e-06
4.20351118772177e-06
4.11579116021236e-06
3.97711426671601e-06
3.76823832610083e-06
3.46865389169106e-06
3.05961674302707e-06
2.52805001526767e-06
1.87057363910841e-06
1.09663240188448e-06
3.23336290985627e-09
1.23033196450711e-11
1.28351081070903e-11
3.38878813902332e-09
1.1514198067496e-06
1.96398833893793e-06
2.65396848991337e-06
3.21168841878161e-06
3.64079417891849e-06
3.95502513265833e-06
4.17404250358837e-06
4.31936686036493e-06
4.41120376969338e-06
4.46651570022942e-06
4.49829593015003e-06
4.51573560510965e-06
4.5248880298656e-06
4.52948806647736e-06
4.53170540006046e-06
4.5327318367607e-06
4.53318867879136e-06
4.53338431373389e-06
4.53346490372091e-06
4.53349676444325e-06
4.53350875821772e-06
4.5335129392827e-06
4.53351407174933e-06
4.53351377642011e-06
4.53351201885674e-06
4.53350705242355e-06
4.53349386948756e-06
4.53345996532747e-06
4.53337562773291e-06
4.53317304318429e-06
4.53270362525218e-06
4.53165547640893e-06
4.52940297761019e-06
4.52475042598726e-06
4.5155274153418e-06
4.49800609492545e-06
4.46615357404429e-06
4.41081698217885e-06
4.31905836547817e-06
4.17397698136166e-06
3.95541257234401e-06
3.64184156260605e-06
3.21352042142354e-06
2.65653287359716e-06
1.96697554008981e-06
1.15422335459308e-06
3.40574830736582e-09
1.29523570233393e-11
1.33903747389285e-11
3.53656873790612e-09
1.20069742094271e-06
2.04618409366464e-06
2.76322945577307e-06
3.34233015779816e-06
3.78763996764069e-06
4.11363649216287e-06
4.34082891041293e-06
4.49158450156591e-06
4.58687013816645e-06
4.64427513896586e-06
4.67727007176176e-06
4.69538438963342e-06
4.70489580146576e-06
4.70967909629814e-06
4.71198631375963e-06
4.71305517945506e-06
4.71353133420703e-06
4.71373546594834e-06
4.71381968073276e-06
4.71385304758368e-06
4.71386565407925e-06
4.71387007867692e-06
4.71387129938281e-06
4.71387101435125e-06
4.7138691965188e-06
4.71386404333334e-06
4.71385037441358e-06
4.71381524536848e-06
4.71372788708316e-06
4.71351804996524e-06
4.71303176321354e-06
4.71194574117152e-06
4.7096113767925e-06
4.70478880795598e-06
4.69522715924213e-06
4.67705996674102e-06
4.64402949843576e-06
4.58664089972639e-06
4.49147078048957e-06
4.34097891491007e-06
4.11422887701692e-06
3.78883842753834e-06
3.34421463922003e-06
2.76572043669658e-06
2.0489875081075e-06
1.20329207958205e-06
3.55267811363833e-09
1.35043021497861e-11
1.38559925811393e-11
3.66072969130583e-09
1.24209487177781e-06
2.11515369472931e-06
2.85483672070952e-06
3.45180816839469e-06
3.910660048325e-06
4.24649236386099e-06
4.48052355263952e-06
4.63582702273464e-06
4.73400403682617e-06
4.79316641723815e-06
4.82718294644608e-06
4.84586572129085e-06
4.85568024471706e-06
4.86061862713752e-06
4.86300210290679e-06
4.86410706710172e-06
4.86459970639862e-06
4.86481111922584e-06
4.86489845616488e-06
4.86493312977316e-06
4.86494627375084e-06
4.86495091556109e-06
4.86495221747844e-06
4.8649519445852e-06
4.86495007694161e-06
4.86494476633493e-06
4.86493068939871e-06
4.86489453679684e-06
4.86480466089061e-06
4.86458878485068e-06
4.86408845266875e-06
4.86297088425726e-06
4.86056829386602e-06
4.85560395807406e-06
4.84575980620134e-06
4.82705360191566e-06
4.79303980786762e-06
4.7339379267392e-06
4.63591913664011e-06
4.48090911607643e-06
4.24732297033422e-06
3.91206025188974e-06
3.45381537623405e-06
2.85734146033094e-06
2.11786600848343e-06
1.24455443294897e-06
3.67622773544011e-09
1.39673213916877e-11
1.4240920709795e-11
3.76358440791581e-09
1.27639992522949e-06
2.17225762986316e-06
2.93064143471039e-06
3.54237069923608e-06
4.01240722480093e-06
4.35636727113383e-06
4.59605430399152e-06
4.75512311483857e-06
4.85569718862392e-06
4.91631875708011e-06
4.95118502072434e-06
4.97034153851878e-06
4.980409208481e-06
4.98547741587433e-06
4.98792489164973e-06
4.9890602381561e-06
4.9895667971839e-06
4.98978438261005e-06
4.98987438001771e-06
4.98991017523192e-06
4.98992378554212e-06
4.98992861888102e-06
4.98992999454968e-06
4.98992973494228e-06
4.98992782686039e-06
4.98992238530213e-06
4.98990797001794e-06
4.98987097246827e-06
4.98977902365805e-06
4.98955818021503e-06
4.98904629509948e-06
4.98790276801601e-06
4.98544400497871e-06
4.98036288223189e-06
4.97028588971076e-06
4.95113525036595e-06
4.91631042632436e-06
4.85579517586472e-06
4.75542609375229e-06
4.59668810683367e-06
4.35746106780645e-06
4.01405119371981e-06
3.54456268096266e-06
2.93324015668991e-06
2.17496661504599e-06
1.27879603036949e-06
3.77871484130644e-09
1.43504652150894e-11
1.45545754449124e-11
3.84757460610548e-09
1.30443337157946e-06
2.21889499920758e-06
2.99253044108881e-06
3.61629530596659e-06
4.09545679141638e-06
4.44605247639517e-06
4.69036156468277e-06
4.85251122858554e-06
4.95504942640848e-06
5.01686859534152e-06
5.05243353724746e-06
5.07198036580413e-06
5.0822570589916e-06
5.087432720118e-06
5.08993330664345e-06
5.09109393960908e-06
5.09161212232869e-06
5.09183488287177e-06
5.09192712238262e-06
5.09196386967887e-06
5.09197788008601e-06
5.09198288037713e-06
5.09198432217983e-06
5.09198407644393e-06
5.0919821362423e-06
5.09197658736958e-06
5.09196189533238e-06
5.09192420953549e-06
5.09183057645319e-06
5.09160570048363e-06
5.09108443629593e-06
5.08991982492775e-06
5.08741540828946e-06
5.08223930848389e-06
5.07197285190256e-06
5.05246040621099e-06
5.01697510563016e-06
4.95530856642471e-06
4.8530246932908e-06
4.69124920115365e-06
4.44742563922217e-06
4.09737623434072e-06
3.61872274451096e-06
2.99529180618878e-06
2.22167808391498e-06
1.30683077899757e-06
3.86256612574843e-09
1.46631532735881e-11
1.48063538921562e-11
3.91514581359677e-09
1.32701058200564e-06
2.25644333791376e-06
3.04235023768122e-06
3.67580149707364e-06
4.16231127784413e-06
4.51825533354049e-06
4.76629402800376e-06
4.93093302640877e-06
5.03506070009465e-06
5.09785072132875e-06
5.1339831489936e-06
5.1538476678255e-06
5.16429488437877e-06
5.16955842596267e-06
5.17210256696941e-06
5.17328399897912e-06
5.17381177538659e-06
5.17403882476985e-06
5.17413293220274e-06
5.17417047850191e-06
5.17418482829086e-06
5.17418997245869e-06
5.17419147287178e-06
5.17419124116279e-06
5.17418927614966e-06
5.17418364085943e-06
5.17416872596911e-06
5.17413048797771e-06
5.17403550659616e-06
5.17380740477256e-06
5.17327863608209e-06
5.17209714357761e-06
5.16955614569653e-06
5.16430388406754e-06
5.1538853922746e-06
5.13408244867399e-06
5.09806660387947e-06
5.03547494756898e-06
4.93165206847526e-06
4.76743476709261e-06
4.51991560933549e-06
4.16452723315584e-06
3.67850236993384e-06
3.04532897257612e-06
2.25936455079858e-06
1.3294643184319e-06
3.93019957647282e-09
1.49147245063566e-11
1.50052371545355e-11
3.96864282221306e-09
1.34490929742187e-06
2.28620846552659e-06
3.08184378579944e-06
3.72297823241554e-06
4.21532142087569e-06
4.57551577955228e-06
4.8265221724641e-06
4.99314492449722e-06
5.09854139228673e-06
5.16210784865921e-06
5.19869505708473e-06
5.21881474381807e-06
5.22939925785365e-06
5.23473374324985e-06
5.23731314556568e-06
5.23851146952501e-06
5.23904706539765e-06
5.2392776254009e-06
5.23937327017343e-06
5.23941147903424e-06
5.23942611335407e-06
5.23943138011409e-06
5.239432931907e-06
5.23943271406263e-06
5.23943073059413e-06
5.23942502717309e-06
5.23940993616629e-06
5.23937126303583e-06
5.23927522113478e-06
5.23904458291421e-06
5.23850991040438e-06
5.23731512465527e-06
5.2347452894041e-06
5.22943292633e-06
5.21889434820628e-06
5.19886177192994e-06
5.16242627328301e-06
5.09910248902814e-06
4.99406117921261e-06
4.82791011387898e-06
4.57746354899067e-06
4.21784500089282e-06
3.72597802171094e-06
3.08508024485829e-06
2.28931743598643e-06
1.34746347008247e-06
3.98392610597609e-09
1.51140655817036e-11
1.51594800594678e-11
4.01022713066021e-09
1.3588441887431e-06
2.30938507251211e-06
3.11260098355594e-06
3.75972717491323e-06
4.25662433647851e-06
4.62014100010863e-06
4.87347056321455e-06
5.04164884477058e-06
5.1480420873593e-06
5.21221978280967e-06
5.24916582394465e-06
5.26948734003285e-06
5.28018074092659e-06
5.28557165162285e-06
5.28817918651046e-06
5.28939103357695e-06
5.2899329136989e-06
5.2901663080524e-06
5.29026320128558e-06
5.29030195254225e-06
5.29031682251567e-06
5.29032219256282e-06
5.29032378896001e-06
5.29032358460175e-06
5.29032158815503e-06
5.29031583247984e-06
5.2903006055969e-06
5.29026159738714e-06
5.29016473986254e-06
5.28993215052887e-06
5.28939293128381e-06
5.28818789204112e-06
5.28559577747034e-06
5.28023690978213e-06
5.26960528575036e-06
5.24939457538023e-06
5.21263321637647e-06
5.14874047749856e-06
5.04275167698483e-06
4.87509606093317e-06
4.62237084835346e-06
4.25945830163336e-06
3.76304027301673e-06
3.1161222237918e-06
2.31271766185385e-06
1.36153213821162e-06
4.02587213601789e-09
1.52693224012378e-11
1.52763854065093e-11
4.04181608817931e-09
1.36944806224775e-06
2.32702775481883e-06
3.1360223835001e-06
3.78772118868826e-06
4.28809833540262e-06
4.65415768742317e-06
4.90926837060125e-06
5.07864158190382e-06
5.18580219979452e-06
5.25045159192765e-06
5.2876752711955e-06
5.30815339108051e-06
5.31893153843748e-06
5.32436650979815e-06
5.32699609092945e-06
5.32821857693523e-06
5.32876542283255e-06
5.32900106856121e-06
5.32909896003225e-06
5.32913814890202e-06
5.32915321148728e-06
5.32915866757083e-06
5.32916030235276e-06
5.32916011096344e-06
5.32915810622379e-06
5.32915231199596e-06
5.32913698376795e-06
5.32909772581019e-06
5.3290002606275e-06
5.32876621587083e-06
5.32822359726541e-06
5.32701087149483e-06
5.32440201060657e-06
5.31900810108479e-06
5.30830621158131e-06
5.28796072361393e-06
5.25095241725844e-06
5.18662792152233e-06
5.07991929800716e-06
4.911119583547e-06
4.65666026843172e-06
4.29123919417999e-06
3.79135310019153e-06
3.13984427954219e-06
2.3306078344321e-06
1.37229348105736e-06
4.05792257200897e-09
1.53876912583073e-11
1.53621533979304e-11
4.06504151568175e-09
1.37725901808211e-06
2.34003135511674e-06
3.15329467515136e-06
3.8083763654421e-06
4.31133250315557e-06
4.67927990695007e-06
4.93571605776688e-06
5.10598069877064e-06
5.2137153532512e-06
5.27871866066162e-06
5.31615133607081e-06
5.33674776117721e-06
5.34759017524032e-06
5.3530586974519e-06
5.35570514083997e-06
5.35693580368883e-06
5.3574864869971e-06
5.35772388370953e-06
5.35782255784407e-06
5.35786209359829e-06
5.35787731125235e-06
5.35788283815911e-06
5.35788450572485e-06
5.35788432672203e-06
5.35788231768181e-06
5.3578764967174e-06
5.35786109684341e-06
5.35782166221285e-06
5.3577237668056e-06
5.35748868834334e-06
5.35694364435069e-06
5.35572540709947e-06
5.35310448078635e-06
5.34768521337081e-06
5.33693227926327e-06
5.31648855266212e-06
5.27929973102234e-06
5.21465886022325e-06
5.10742170178123e-06
4.93778049007002e-06
4.68204388896761e-06
4.31477283293711e-06
3.81232630336622e-06
3.1574245957289e-06
2.34387323881249e-06
1.38027764524351e-06
4.08168183460492e-09
1.54752795904441e-11
1.5421792257375e-11
4.08122434533703e-09
1.38271251066653e-06
2.34911892708442e-06
3.16537577521884e-06
3.82283508139516e-06
4.32760830991292e-06
4.69688967956385e-06
4.95426524094522e-06
5.1251638898175e-06
5.23330841151453e-06
5.29856550645951e-06
5.33614875395507e-06
5.35683084673784e-06
5.36772005293322e-06
5.37321314668647e-06
5.37587201722283e-06
5.37710874743725e-06
5.37766229986887e-06
5.3779010173938e-06
5.37800028847057e-06
5.37804009271827e-06
5.37805543286345e-06
5.37806101729704e-06
5.37806271267487e-06
5.37806254545601e-06
5.37806053552022e-06
5.37805469806421e-06
5.37803925235542e-06
5.37799970446749e-06
5.37790153241087e-06
5.37766578420811e-06
5.37711915310145e-06
5.37589727154853e-06
5.37326828858862e-06
5.36783193864075e-06
5.35704435222595e-06
5.33653349206772e-06
5.29922061424447e-06
5.23436128255292e-06
5.12675770269559e-06
4.95653114589585e-06
4.69990357534722e-06
4.33133901518523e-06
3.82709858213818e-06
3.16981537274252e-06
2.3532299929948e-06
1.3859140310869e-06
4.09844952152566e-09
1.55370222409759e-11
1.54590738548767e-11
4.09136121574587e-09
1.38613707730912e-06
2.35483536593401e-06
3.17298702753307e-06
3.83195719440499e-06
4.33789008316313e-06
4.70802692335579e-06
4.96600824259039e-06
5.13731825398525e-06
5.2457305549602e-06
5.31115472489349e-06
5.34883791846857e-06
5.36957738371561e-06
5.38049822602301e-06
5.38600810054924e-06
5.38867554896325e-06
5.38991651522266e-06
5.3904720960006e-06
5.39071176077641e-06
5.39081146751679e-06
5.39085147219425e-06
5.39086690654027e-06
5.39087253693179e-06
5.39087425575512e-06
5.39087409973609e-06
5.39087209184232e-06
5.39086624691783e-06
5.3908507782916e-06
5.39081117357995e-06
5.3907128613931e-06
5.39047676615349e-06
5.38992928879338e-06
5.38870540765376e-06
5.38607188779986e-06
5.38062569912406e-06
5.36981776917563e-06
5.34926685785384e-06
5.31187896892063e-06
5.24688606029518e-06
5.13905635025474e-06
4.96846578506695e-06
4.7112806384012e-06
4.34190234802596e-06
3.83652842747789e-06
3.17773475239559e-06
2.35921846361441e-06
1.38952689928193e-06
4.10920677149029e-09
1.55766374105785e-11
1.5476518464199e-11
4.09611902215168e-09
1.3877525194381e-06
2.35754478203139e-06
3.1766100203123e-06
3.83631643855405e-06
4.3428211029684e-06
4.71338532828443e-06
4.97167379698102e-06
5.14319587066807e-06
5.25174875823303e-06
5.31726240588687e-06
5.35500025598481e-06
5.37577179656849e-06
5.38671073686812e-06
5.39223044144766e-06
5.39490303919918e-06
5.39614661422964e-06
5.39670347898815e-06
5.39694376228185e-06
5.39704376423564e-06
5.39708391113597e-06
5.39709941620579e-06
5.39710508335819e-06
5.39710682228576e-06
5.39710667699559e-06
5.39710467338804e-06
5.39709882839738e-06
5.39708335671046e-06
5.39704374569848e-06
5.39694541758e-06
5.39670927066302e-06
5.39616162569492e-06
5.39493724904367e-06
5.39230240218663e-06
5.38685296019401e-06
5.37603765408317e-06
5.35547116214041e-06
5.31805245700499e-06
5.25300227687819e-06
5.14507228729972e-06
4.97431592094157e-06
4.71687133201539e-06
4.34710788633216e-06
3.841189987418e-06
3.18166305730726e-06
2.36220009451277e-06
1.39133316300879e-06
4.1146095283449e-09
1.55966071894224e-11
1.5475392249306e-11
4.09583310244485e-09
1.38766931329281e-06
2.35742986770256e-06
3.17648604631783e-06
3.83619996920609e-06
4.34272313737081e-06
4.71331181354031e-06
4.97162640256394e-06
5.14317304580002e-06
5.25174693714233e-06
5.31727715897946e-06
5.35502718916973e-06
5.37580712346557e-06
5.38675151444452e-06
5.39227457148925e-06
5.39494913262806e-06
5.39619380960586e-06
5.39675127218628e-06
5.39699187285985e-06
5.39709204257345e-06
5.39713227966102e-06
5.39714783495764e-06
5.3971535310994e-06
5.39715528738083e-06
5.39715515240488e-06
5.39715315496156e-06
5.39714731653987e-06
5.39713186038053e-06
5.39709229143746e-06
5.39699406739364e-06
5.39675815481299e-06
5.39621099856159e-06
5.39498757680331e-06
5.39235448743708e-06
5.38690809727142e-06
5.37609778694004e-06
5.3555389854854e-06
5.31813137033536e-06
5.25309608842629e-06
5.14518459237641e-06
4.97444915606113e-06
4.71702561322182e-06
4.34727982607723e-06
3.84137168822757e-06
3.18184137322102e-06
2.36235607192423e-06
1.39144137239036e-06
4.11498546469364e-09
1.559817012559e-11
1.54557150825845e-11
4.0905088575145e-09
1.38588898431822e-06
2.35449230997536e-06
3.1726164481023e-06
3.83160863639719e-06
4.33759663722948e-06
4.70780665007868e-06
4.96586638062741e-06
5.13725032021636e-06
5.24572593777502e-06
5.31120014245954e-06
5.34892015580125e-06
5.36968501486102e-06
5.38062235913093e-06
5.38614238868726e-06
5.38881578649316e-06
5.39006009228251e-06
5.39061748456378e-06
5.39085811058401e-06
5.39095832492065e-06
5.39099860205941e-06
5.39101418783442e-06
5.39101990542574e-06
5.39102167634881e-06
5.39102155127658e-06
5.39101956195298e-06
5.39101373705159e-06
5.39099831586377e-06
5.39095883937109e-06
5.39086084381137e-06
5.39062546068805e-06
5.39007946735501e-06
5.3888584841372e-06
5.38623029504697e-06
5.38079335767505e-06
5.37000056152945e-06
5.34947292742889e-06
5.31211856925691e-06
5.24717064365877e-06
5.13939667118038e-06
4.96886903163091e-06
4.71174693159502e-06
4.34242120984144e-06
3.8370758249027e-06
3.17827098947516e-06
2.35968663146093e-06
1.38985104950922e-06
4.11033134430066e-09
1.55813094825348e-11
1.5416271662613e-11
4.07982432169569e-09
1.38230461432832e-06
2.34855326804551e-06
3.16476297819007e-06
3.8222572200704e-06
4.32712087835372e-06
4.69652352833305e-06
4.9540298824071e-06
5.12505243020301e-06
5.23330346170882e-06
5.29864497230743e-06
5.33629048434066e-06
5.35701559957977e-06
5.36793280458713e-06
5.3734431475077e-06
5.37611213147066e-06
5.37735454106263e-06
5.37791117433117e-06
5.37815152584732e-06
5.37825165873928e-06
5.37829192462668e-06
5.3783075205877e-06
5.37831325179563e-06
5.3783150345153e-06
5.37831491898344e-06
5.37831294007714e-06
5.37830713656541e-06
5.37829177198156e-06
5.37825244336467e-06
5.37815481212742e-06
5.37792027901021e-06
5.37737617792841e-06
5.37615923285328e-06
5.3735393226118e-06
5.36811870154269e-06
5.35735681204052e-06
5.33688541144837e-06
5.29962925567655e-06
5.23484581187091e-06
5.12733592437034e-06
4.95721462064391e-06
4.70069173824155e-06
4.33221335450878e-06
3.82801793306502e-06
3.170712777185e-06
2.35401057309453e-06
1.38645247905153e-06
4.10031301552404e-09
1.5544760117287e-11
1.53546083033499e-11
4.06312987722864e-09
1.37670104372117e-06
2.33925381691882e-06