/*--------------------------------*- C++ -*----------------------------------*\
  =========                 |
  \\      /  F ield         | OpenFOAM: The Open Source CFD Toolbox
   \\    /   O peration     | Website:  https://openfoam.org
    \\  /    A nd           | Version:  10
     \\/     M anipulation  |
\*---------------------------------------------------------------------------*/
FoamFile
{
    format      ascii;
    class       volScalarField;
    location    "8.2";
    object      omega;
}
// * * * * * * * * * * * * * * * * * * * * * * * * * * * * * * * * * * * * * //

dimensions      [0 0 -1 0 0 0 0];

internalField   nonuniform List<scalar> 
2500
(
127873.032634697
127882.129873311
127879.548960509
127877.458961638
127876.063607371
127875.19492866
127874.672599579
127874.36623971
127874.191654303
127874.095930682
127874.044703522
127874.018500728
127874.005599772
127873.999217016
127873.996096116
127873.994431244
127873.993687651
127873.993176415
127873.992751163
127873.992486951
127873.992278591
127873.992109064
127873.991974387
127873.991895225
127873.991813303
127873.991751037
127873.99173494
127873.991740353
127873.991774451
127873.991841562
127873.991951055
127873.992158125
127873.992427112
127873.992868042
127873.99366497
127873.995228464
127873.998424664
127874.004919565
127874.018509782
127874.04532103
127874.097039786
127874.193581268
127874.36785757
127874.672513602
127875.192445451
127876.057027124
127877.452747329
127879.554467971
127882.147668756
127873.003733564
31881.7491133575
14168.7679156421
14167.5050488451
14166.5163752053
14165.8492079134
14165.42602051
14165.1658654603
14165.0098839062
14164.9189839599
14164.8677595398
14164.8399040532
14164.8253303559
14164.8179951236
14164.8144294434
14164.8127530697
14164.8119836995
14164.8116442167
14164.8114891403
14164.8114119254
14164.8113725856
14164.8113489354
14164.811332293
14164.8113199151
14164.8113116414
14164.8113044616
14164.8112989084
14164.8112963773
14164.811295852
14164.8112977406
14164.8113039763
14164.8113189894
14164.8113536891
14164.8114283204
14164.8115938404
14164.8119627596
14164.8127801687
14164.8145516152
14164.8182758956
14164.8258648139
14164.8407542119
14164.8689399424
14164.9204100698
14165.0112122642
14165.1664988762
14165.4253106091
14165.8471333527
14166.5153352292
14167.5105996972
14168.7814754954
31881.7059661414
31798.8323085128
3532.77655594395
50.8652646089041
50.8602080940568
50.8568352541692
50.8547073204376
50.8534030333976
50.8526220620984
50.8521668747224
50.8519099448528
50.8517699567952
50.8516965068013
50.8516594202385
50.8516413764574
50.8516329078743
50.8516290612784
50.851627375537
50.8516266428098
50.8516263161502
50.8516261664835
50.8516260887533
50.8516260399882
50.8516260056455
50.8516259822968
50.8516259634627
50.8516259487223
50.8516259404326
50.851625936758
50.8516259393234
50.8516259579185
50.8516260135526
50.8516261564207
50.8516265003023
50.8516273009423
50.8516291285393
50.8516332243558
50.851642142778
50.8516609219202
50.8516991129839
50.8517739636426
50.8519154311276
50.8521734098622
50.8526282028547
50.8534062526665
50.8547050980732
50.85682921458
50.8602131289981
50.865313981119
3532.78443352894
31798.8300771807
31721.4761366214
3524.05525256582
50.7389514399593
50.7335731422191
50.7300765463294
50.7279183586621
50.726621724264
50.7258589999582
50.7254211875577
50.7251772436281
50.7250458130383
50.7249775157322
50.7249433228458
50.7249268233886
50.7249191444931
50.7249156926749
50.7249141957994
50.7249135602272
50.7249132897026
50.7249131725355
50.72491311616
50.7249130827308
50.7249130595129
50.7249130435748
50.7249130312411
50.7249130213347
50.7249130147346
50.7249130104236
50.7249130088676
50.7249130185329
50.7249130582193
50.7249131711246
50.7249134612995
50.7249141548002
50.7249157617191
50.7249194090695
50.7249274389229
50.7249445197074
50.7249795933311
50.7250490507156
50.7251817794435
50.7254267713925
50.7258646125076
50.7266255203764
50.7279188917779
50.730077547177
50.7335939640805
50.7390348656929
3524.06809926354
31721.5673208871
31656.0289163093
3516.75764520467
50.6343046420058
50.6294390101606
50.6263617918278
50.6245074039953
50.6234171052065
50.6227876615928
50.6224319462199
50.6222362459729
50.6221318935482
50.622078121783
50.6220513870569
50.6220385647863
50.622032631832
50.6220299828305
50.6220288432095
50.6220283671563
50.6220281711719
50.6220280905134
50.6220280545523
50.6220280344267
50.622028020485
50.6220280108885
50.6220280037273
50.6220279977365
50.6220279930452
50.6220279890084
50.6220279858874
50.6220279885271
50.6220280114946
50.6220280887097
50.6220283001914
50.6220288162671
50.6220300245107
50.6220327935538
50.6220389418935
50.6220521258885
50.6220794180618
50.6221339494862
50.622239198005
50.6224357053547
50.6227916708882
50.623420350249
50.6245096252683
50.6263681827265
50.6294707752124
50.6344093053234
3516.77397594916
31656.2118330996
31605.2143058572
3511.16852283462
50.5549943056016
50.5510901831118
50.5486886844047
50.5472762894091
50.5464637788482
50.5460033612315
50.5457470646196
50.5456077173572
50.5455340889091
50.5454964124067
50.5454777795661
50.5454688811545
50.5454647796215
50.5454629566083
50.5454621772401
50.5454618560016
50.5454617275171
50.5454616773726
50.5454616570321
50.5454616465865
50.5454616393058
50.5454616342851
50.5454616307181
50.5454616275104
50.5454616244794
50.545461621207
50.5454616181001
50.5454616173782
50.5454616279546
50.5454616742863
50.545461813024
50.5454621584825
50.5454629738477
50.5454648569977
50.545469065848
50.5454781468139
50.5454970668012
50.5455351475043
50.5456092761422
50.5457491125466
50.5460056474322
50.5464658764005
50.5472786734236
50.5486968701851
50.5511244170847
50.5551013533351
3511.18577217731
31605.4517770633
31568.6931067124
3507.21355911581
50.4994826127559
50.4966413115881
50.4949404665683
50.4939639322208
50.4934141329092
50.4931082112555
50.4929403621226
50.4928500956289
50.4928027807735
50.4927787067296
50.492766848079
50.4927612008374
50.4927586040849
50.4927574533964
50.4927569639844
50.4927567646915
50.4927566871727
50.4927566586459
50.492756648474
50.4927566440795
50.4927566409852
50.4927566388195
50.4927566374487
50.4927566359917
50.4927566341977
50.4927566318085
50.4927566290878
50.4927566273018
50.4927566308518
50.4927566555535
50.4927567390347
50.4927569515796
50.4927574569312
50.4927586316244
50.4927612702227
50.4927669894301
50.4927789643469
50.4928032079758
50.4928507423566
50.4929412335119
50.4931092009599
50.4934151012287
50.4939655687065
50.4949476146281
50.4966711337988
50.4995763872871
3507.22930515031
31568.9385835799
31544.2282129539
3504.60876816632
50.4633298941341
50.4614272915727
50.4603178947901
50.4596957266829
50.4593527522832
50.4591652777636
50.4590638359909
50.4590098342778
50.4589817273819
50.4589674925509
50.4589605005703
50.4589571765751
50.4589556500902
50.4589549749993
50.4589546891276
50.4589545740626
50.4589545305873
50.4589545156399
50.4589545111827
50.4589545100016
50.4589545091816
50.4589545085361
50.4589545083279
50.4589545078434
50.4589545068733
50.458954505281
50.4589545031914
50.4589545014505
50.4589545018632
50.4589545136003
50.4589545600236
50.4589546817374
50.458954973393
50.458955655078
50.4589571919169
50.4589605338008
50.4589675563918
50.458981838589
50.4590100096465
50.459064072118
50.4591655158461
50.4593529404811
50.4596964419957
50.4603227983004
50.4614494755947
50.4634023617779
3504.6215166067
31544.4453746304
31528.8649786905
3503.00222448645
50.4412853486401
50.4401009786841
50.4394275509027
50.4390583847467
50.438859026501
50.4387519320264
50.4386947566291
50.4386646091998
50.4386490163591
50.4386411489435
50.4386372920502
50.438635459953
50.4386346189738
50.4386342475006
50.4386340908163
50.4386340284768
50.4386340056244
50.4386339984396
50.4386339970261
50.4386339971879
50.4386339972642
50.438633997286
50.4386339974591
50.4386339974032
50.4386339969144
50.4386339959448
50.4386339945002
50.4386339930587
50.4386339924886
50.4386339975295
50.438634021521
50.4386340869607
50.4386342452018
50.4386346168009
50.4386354566693
50.4386372866531
50.4386411414342
50.4386490074333
50.438664598457
50.4386947307624
50.4387518421221
50.438858824049
50.4390584267085
50.4394302748169
50.4401154713648
50.4413357262278
3503.0115471096
31529.0354091842
31519.7757874846
3502.06942706542
50.4286327089595
50.4279418540905
50.427558361756
50.4273527074913
50.4272438556508
50.4271863679678
50.4271560753052
50.427140247
50.4271321065696
50.4271280117685
50.4271260067349
50.4271250543794
50.427124617134
50.4271244241258
50.4271243430199
50.4271243111364
50.4271242998483
50.4271242968739
50.4271242967422
50.4271242971183
50.4271242974453
50.427124297689
50.4271242979151
50.4271242979479
50.4271242977306
50.4271242971677
50.4271242962507
50.4271242952225
50.4271242945499
50.4271242964553
50.4271243080746
50.4271243413319
50.4271244226215
50.4271246142908
50.4271250481363
50.4271259943034
50.4271279899628
50.4271320714728
50.4271401923931
50.4271559842253
50.427186195243
50.4272435413031
50.4273524158
50.4275595417696
50.4279502966585
50.4286646520834
3502.07566833053
31519.8970366988
31514.6874468226
3501.55720306197
50.42176517064
50.421385123551
50.4211789270508
50.4210706681908
50.4210144764195
50.4209852922495
50.4209701099208
50.4209622459569
50.4209582224621
50.4209562035281
50.4209552155128
50.4209547459811
50.4209545302548
50.4209544350572
50.4209543952004
50.4209543797321
50.4209543745377
50.4209543734581
50.4209543736323
50.4209543739907
50.4209543743047
50.4209543745526
50.4209543747329
50.4209543747926
50.4209543747018
50.4209543743826
50.4209543738411
50.4209543731855
50.4209543726538
50.4209543732567
50.4209543785901
50.4209543946563
50.4209544344182
50.4209545285034
50.4209547415907
50.4209552062718
50.4209561866496
50.4209581941823
50.420962199984
50.4209700309868
50.4209851422381
50.4210141941226
50.4210702973002
50.4211792419316
50.4213895388441
50.4217838355186
3501.56106838298
31514.7667877006
31511.9814417892
3501.2900994771
50.4182257117875
50.4180274835194
50.4179222418214
50.4178681009746
50.4178405289951
50.4178264429931
50.4178192073501
50.4178154912323
50.4178135990499
50.4178126514542
50.4178121877494
50.4178119671638
50.4178118657019
50.4178118209297
50.417811802255
50.4178117951031
50.4178117928661
50.4178117925474
50.4178117927323
50.4178117929923
50.4178117932187
50.4178117933993
50.4178117935199
50.417811793572
50.4178117935351
50.4178117933617
50.4178117930617
50.4178117926797
50.4178117923465
50.4178117924898
50.4178117948056
50.4178118022115
50.4178118208171
50.4178118649798
50.4178119649802
50.4178121828373
50.4178126421558
50.4178135829549
50.4178154638565
50.417819157415
50.4178263420427
50.4178403255062
50.4178677823654
50.417922180071
50.4180295536773
50.4182358410515
3501.29233246899
31512.0297037123
31510.6096541662
3501.15735767416
50.4164873284303
50.4163888479272
50.4163376268892
50.416311786728
50.4162988687721
50.4162923756153
50.4162890819106
50.4162874043782
50.4162865540651
50.4162861289069
50.4162859207773
50.4162858216307
50.416285775961
50.4162857558058
50.416285747432
50.4162857442765
50.4162857433738
50.416285743312
50.4162857434391
50.4162857436019
50.4162857437425
50.4162857438546
50.4162857439268
50.4162857439618
50.4162857439469
50.4162857438575
50.4162857437007
50.4162857434937
50.4162857433004
50.4162857433079
50.4162857442749
50.4162857475488
50.4162857559108
50.4162857758141
50.416285820842
50.4162859187621
50.4162861248863
50.4162865468033
50.4162873912157
50.4162890555763
50.4162923170942
50.416298740657
50.4163115601407
50.4163374608707
50.4163897064435
50.4164924646335
3501.15856919439
31510.6371674626
31509.9447372434
3501.09429182284
50.4156711958765
50.4156244118026
50.4156005467555
50.415588730639
50.4155829289394
50.4155800591302
50.4155786215125
50.4155778953415
50.4155775288429
50.4155773458243
50.4155772561638
50.4155772133783
50.4155771936369
50.4155771849227
50.4155771813178
50.4155771799879
50.4155771796402
50.4155771796446
50.4155771797246
50.415577179817
50.4155771798962
50.4155771799591
50.4155771799988
50.4155771800192
50.4155771800134
50.4155771799696
50.415577179892
50.4155771797868
50.4155771796835
50.4155771796644
50.4155771800534
50.415577181448
50.4155771850706
50.4155771937137
50.415577213238
50.4155772555898
50.4155773445277
50.4155775262977
50.4155778901607
50.4155786094685
50.4155800286586
50.4155828558279
50.4155885882342
50.4156003937815
50.4156247142547
50.4156736403585
3501.09491266271
31509.9595332169
31509.6358073139
3501.06557562362
50.415304057874
50.4152827325915
50.4152720516594
50.4152668571279
50.415264350764
50.4152631304376
50.4152625267093
50.4152622242541
50.4152620722393
50.4152619964036
50.415261959213
50.4152619414304
50.4152619332102
50.4152619295809
50.4152619280866
50.4152619275484
50.415261927421
50.4152619274363
50.4152619274816
50.4152619275303
50.4152619275717
50.4152619276045
50.4152619276251
50.4152619276361
50.4152619276341
50.4152619276138
50.4152619275773
50.4152619275269
50.4152619274757
50.4152619274592
50.4152619276108
50.4152619281856
50.415261929703
50.4152619333308
50.415261941509
50.4152619591936
50.4152619962143
50.4152620716999
50.4152622227119
50.4152625219019
50.4152631158714
50.4152643121508
50.4152667755275
50.4152719441549
50.4152828117338
50.4153051533846
3501.06587756365
31509.6433537122
31509.4979918135
3501.05302519848
50.4151456029528
50.4151362479688
50.4151316423717
50.4151294403991
50.4151283957378
50.4151278949514
50.4151276502667
50.4151275286896
50.4151274678323
50.4151274374966
50.4151274226005
50.4151274154624
50.4151274121565
50.4151274106968
50.415127410099
50.4151274098896
50.4151274098456
50.4151274098574
50.4151274098811
50.4151274099055
50.415127409926
50.4151274099423
50.4151274099526
50.4151274099583
50.4151274099578
50.4151274099491
50.4151274099329
50.4151274099101
50.4151274098864
50.4151274098769
50.4151274099344
50.4151274101643
50.4151274107807
50.4151274122562
50.4151274155746
50.4151274227242
50.4151274376344
50.4151274679433
50.4151275284927
50.4151276486316
50.4151278884731
50.4151283766082
50.4151293969814
50.4151315770725
50.415136252496
50.415146066166
3501.05316513912
31509.5016586703
31509.4389596206
3501.04776367325
50.4150800709473
50.4150761109908
50.4150741926106
50.4150732901695
50.4150728689464
50.4150726700794
50.4150725741117
50.4150725268198
50.4150725032418
50.4150724914967
50.4150724857213
50.4150724829475
50.4150724816606
50.4150724810926
50.4150724808616
50.4150724807832
50.4150724807692
50.4150724807765
50.4150724807884
50.4150724808001
50.41507248081
50.4150724808179
50.415072480823
50.415072480826
50.4150724808263
50.415072480823
50.4150724808163
50.4150724808067
50.4150724807965
50.4150724807919
50.4150724808134
50.415072480903
50.4150724811462
50.415072481729
50.4150724830362
50.4150724858414
50.4150724916665
50.4150725034639
50.4150725269826
50.4150725736826
50.4150726673759
50.4150728599722
50.41507326846
50.4150741566974
50.4150760983628
50.4150802558371
3501.04782570317
31509.4406636874
31509.4147790008
3501.04566064077
50.4150543029086
50.4150526816518
50.4150519079679
50.4150515495585
50.4150513848635
50.4150513082598
50.4150512717471
50.415051253903
50.4150512450426
50.4150512406319
50.41505123846
50.415051237415
50.4150512369296
50.4150512367158
50.4150512366298
50.4150512366018
50.4150512365982
50.4150512366024
50.4150512366083
50.415051236614
50.4150512366188
50.4150512366227
50.4150512366254
50.4150512366271
50.4150512366277
50.4150512366268
50.4150512366244
50.4150512366207
50.4150512366166
50.4150512366148
50.4150512366228
50.4150512366569
50.4150512367502
50.4150512369741
50.4150512374747
50.4150512385447
50.4150512407566
50.4150512452179
50.4150512540879
50.4150512717028
50.4150513071974
50.4150513808507
50.4150515392724
50.4150518896619
50.4150526698522
50.415054372486
3501.04568701936
31509.415538937
31509.4054523002
3501.04487663054
50.415044932193
50.415044288873
50.4150439861384
50.4150438479146
50.4150437853432
50.4150437566608
50.4150437431572
50.4150437366137
50.4150437333785
50.4150437317698
50.4150437309771
50.4150437305954
50.4150437304183
50.4150437303409
50.4150437303104
50.4150437303013
50.415043730301
50.4150437303035
50.4150437303066
50.4150437303096
50.4150437303121
50.4150437303142
50.4150437303158
50.415043730317
50.4150437303177
50.4150437303177
50.4150437303171
50.4150437303161
50.4150437303147
50.4150437303141
50.4150437303172
50.4150437303299
50.4150437303647
50.4150437304482
50.4150437306346
50.4150437310315
50.4150437318487
50.4150437334901
50.4150437367439
50.4150437432035
50.41504375627
50.415043783627
50.4150438432702
50.4150439773716
50.4150442813143
50.415044956785
3501.04488742247
31509.4057784691
31509.4022399581
3501.04462478807
50.4150420932084
50.4150418453449
50.4150417302092
50.4150416783533
50.4150416552137
50.4150416447574
50.4150416398956
50.415041637561
50.4150416364127
50.4150416358431
50.4150416355628
50.4150416354283
50.4150416353664
50.41504163534
50.4150416353302
50.4150416353279
50.4150416353287
50.4150416353304
50.4150416353323
50.415041635334
50.4150416353355
50.4150416353369
50.4150416353381
50.415041635339
50.4150416353397
50.4150416353402
50.4150416353404
50.4150416353403
50.4150416353401
50.4150416353401
50.4150416353413
50.4150416353459
50.4150416353584
50.4150416353884
50.4150416354556
50.4150416355985
50.4150416358919
50.4150416364794
50.4150416376411
50.4150416399468
50.4150416446277
50.415041654513
50.415041676349
50.4150417262319
50.4150418412414
50.4150421013087
3501.04462904649
31509.4023750501
31509.401463764
3501.04458083289
50.4150417730789
50.4150416802027
50.4150416375767
50.4150416186246
50.4150416102842
50.4150416065689
50.4150416048643
50.4150416040544
50.4150416036592
50.4150416034644
50.4150416033694
50.4150416033245
50.4150416033045
50.4150416032967
50.4150416032944
50.4150416032946
50.4150416032956
50.415041603297
50.4150416032984
50.4150416032996
50.4150416033008
50.4150416033018
50.4150416033027
50.4150416033036
50.4150416033043
50.4150416033049
50.4150416033054
50.4150416033057
50.4150416033059
50.4150416033062
50.4150416033067
50.4150416033082
50.4150416033125
50.4150416033227
50.4150416033458
50.4150416033952
50.4150416034969
50.4150416037006
50.4150416041036
50.4150416049041
50.4150416065367
50.4150416100151
50.4150416177994
50.4150416358605
50.4150416781958
50.4150417755294
3501.04458245745
31509.4015178841
31509.4016289349
3501.04461566465
50.4150423951715
50.4150423612806
50.4150423459
50.4150423391456
50.415042336214
50.4150423349279
50.4150423343471
50.4150423340754
50.4150423339449
50.4150423338819
50.4150423338521
50.4150423338388
50.4150423338336
50.4150423338323
50.4150423338327
50.4150423338337
50.415042333835
50.4150423338362
50.4150423338373
50.4150423338384
50.4150423338394
50.4150423338403
50.4150423338412
50.415042333842
50.4150423338427
50.4150423338434
50.4150423338439
50.4150423338444
50.4150423338447
50.415042333845
50.4150423338453
50.4150423338458
50.415042333847
50.41504233385
50.4150423338572
50.415042333873
50.4150423339063
50.4150423339738
50.4150423341084
50.4150423343775
50.4150423349306
50.415042336122
50.4150423388256
50.4150423451972
50.4150423603757
50.4150423958351
3501.04461626551
31509.401649956
31509.4021475268
3501.04467951725
50.41504335976
50.4150433477059
50.4150433422939
50.4150433399464
50.4150433389426
50.4150433385105
50.4150433383199
50.4150433382335
50.4150433381937
50.4150433381757
50.4150433381683
50.4150433381659
50.4150433381658
50.4150433381667
50.415043338168
50.4150433381693
50.4150433381706
50.4150433381717
50.4150433381728
50.4150433381738
50.4150433381747
50.4150433381756
50.4150433381764
50.4150433381772
50.4150433381779
50.4150433381786
50.4150433381792
50.4150433381797
50.4150433381801
50.4150433381804
50.4150433381806
50.4150433381806
50.4150433381808
50.4150433381813
50.4150433381828
50.415043338187
50.4150433381964
50.4150433382168
50.4150433382589
50.415043338345
50.4150433385254
50.4150433389211
50.4150433398347
50.415043342025
50.415043347329
50.4150433599155
3501.04467973351
31509.40215546
31509.4027952453
3501.04475377638
50.4150444455252
50.4150444413465
50.415044439491
50.4150444386972
50.4150444383642
50.4150444382252
50.4150444381668
50.4150444381423
50.4150444381327
50.4150444381297
50.4150444381296
50.4150444381307
50.4150444381323
50.415044438134
50.4150444381356
50.415044438137
50.4150444381382
50.4150444381394
50.4150444381404
50.4150444381414
50.4150444381423
50.4150444381431
50.4150444381439
50.4150444381447
50.4150444381454
50.4150444381461
50.4150444381467
50.4150444381472
50.4150444381476
50.4150444381479
50.415044438148
50.415044438148
50.4150444381477
50.4150444381474
50.4150444381471
50.4150444381473
50.4150444381488
50.4150444381533
50.4150444381643
50.4150444381891
50.4150444382442
50.4150444383699
50.4150444386686
50.4150444394006
50.4150444412057
50.4150444455589
3501.04475385276
31509.4027981635
31509.4034889442
3501.04483167377
50.4150455730823
50.4150455716742
50.4150455710573
50.4150455707982
50.4150455706931
50.4150455706521
50.4150455706371
50.4150455706327
50.4150455706327
50.4150455706344
50.4150455706365
50.4150455706387
50.4150455706408
50.4150455706426
50.4150455706443
50.4150455706456
50.4150455706469
50.415045570648
50.415045570649
50.41504557065
50.4150455706509
50.4150455706517
50.4150455706525
50.4150455706533
50.415045570654
50.4150455706546
50.4150455706552
50.4150455706557
50.4150455706561
50.4150455706565
50.4150455706566
50.4150455706565
50.4150455706562
50.4150455706556
50.4150455706547
50.4150455706537
50.4150455706527
50.4150455706522
50.4150455706532
50.4150455706582
50.4150455706724
50.4150455707089
50.4150455708017
50.4150455710376
50.4150455716333
50.4150455730969
3501.04483170078
31509.4034899972
31509.4041986226
3501.044910813
50.4150467147086
50.4150467142522
50.4150467140565
50.4150467139771
50.4150467139472
50.4150467139379
50.4150467139366
50.4150467139383
50.415046713941
50.4150467139439
50.4150467139466
50.415046713949
50.4150467139512
50.415046713953
50.4150467139545
50.4150467139559
50.4150467139571
50.4150467139582
50.4150467139592
50.4150467139602
50.4150467139611
50.4150467139619
50.4150467139627
50.4150467139634
50.4150467139641
50.4150467139648
50.4150467139654
50.4150467139659
50.4150467139663
50.4150467139666
50.4150467139667
50.4150467139666
50.4150467139663
50.4150467139657
50.4150467139648
50.4150467139634
50.4150467139618
50.4150467139599
50.4150467139581
50.4150467139571
50.4150467139585
50.4150467139667
50.4150467139924
50.4150467140638
50.4150467142516
50.4150467147253
3501.04491082307
31509.4041989976
31509.4049137274
3501.04499036656
50.415047860964
50.4150478608269
50.4150478607709
50.4150478607501
50.4150478607443
50.4150478607445
50.415047860747
50.4150478607503
50.4150478607535
50.4150478607565
50.4150478607592
50.4150478607615
50.4150478607636
50.4150478607653
50.4150478607668
50.4150478607681
50.4150478607693
50.4150478607704
50.4150478607714
50.4150478607723
50.4150478607732
50.4150478607739
50.4150478607747
50.4150478607755
50.4150478607762
50.4150478607768
50.4150478607774
50.4150478607779
50.4150478607783
50.4150478607787
50.4150478607788
50.4150478607788
50.4150478607785
50.415047860778
50.4150478607771
50.4150478607758
50.4150478607741
50.4150478607721
50.4150478607697
50.4150478607672
50.4150478607651
50.4150478607648
50.4150478607698
50.4150478607882
50.4150478608418
50.4150478609845
3501.04499037093
31509.404913865
31509.4056306349
3501.04507005542
50.4150490087098
50.4150490086771
50.4150490086661
50.4150490086636
50.4150490086647
50.4150490086674
50.4150490086706
50.4150490086739
50.415049008677
50.4150490086798
50.4150490086822
50.4150490086843
50.4150490086862
50.4150490086878
50.4150490086893
50.4150490086905
50.4150490086916
50.4150490086927
50.4150490086936
50.4150490086945
50.4150490086954
50.4150490086962
50.415049008697
50.4150490086977
50.4150490086984
50.415049008699
50.4150490086996
50.4150490087001
50.4150490087006
50.4150490087009
50.4150490087011
50.4150490087011
50.4150490087009
50.4150490087005
50.4150490086997
50.4150490086986
50.4150490086972
50.4150490086953
50.415049008693
50.4150490086905
50.4150490086879
50.4150490086856
50.4150490086845
50.4150490086868
50.4150490086976
50.4150490087325
3501.04507005798
31509.4056306903
31509.4063481289
3501.04514978755
50.4150501569254
50.4150501569258
50.4150501569285
50.4150501569311
50.4150501569338
50.4150501569367
50.4150501569397
50.4150501569425
50.4150501569452
50.4150501569476
50.4150501569498
50.4150501569517
50.4150501569534
50.4150501569549
50.4150501569562
50.4150501569574
50.4150501569585
50.4150501569595
50.4150501569604
50.4150501569613
50.4150501569621
50.4150501569629
50.4150501569636
50.4150501569644
50.4150501569651
50.4150501569657
50.4150501569664
50.4150501569669
50.4150501569673
50.4150501569677
50.4150501569679
50.415050156968
50.4150501569679
50.4150501569675
50.415050156967
50.4150501569661
50.4150501569649
50.4150501569633
50.4150501569615
50.4150501569593
50.415050156957
50.4150501569547
50.4150501569525
50.4150501569503
50.4150501569482
50.4150501569491
3501.04514978951
31509.4063481577
31509.40706581
3501.04522953325
50.4150513052863
50.4150513052965
50.4150513053029
50.4150513053064
50.4150513053091
50.4150513053114
50.4150513053138
50.4150513053161
50.4150513053183
50.4150513053204
50.4150513053222
50.4150513053239
50.4150513053254
50.4150513053267
50.415051305328
50.4150513053291
50.4150513053301
50.415051305331
50.4150513053319
50.4150513053328
50.4150513053336
50.4150513053344
50.4150513053351
50.4150513053358
50.4150513053366
50.4150513053372
50.4150513053378
50.4150513053383
50.4150513053388
50.4150513053392
50.4150513053395
50.4150513053396
50.4150513053396
50.4150513053395
50.4150513053391
50.4150513053384
50.4150513053375
50.4150513053363
50.4150513053349
50.4150513053333
50.4150513053316
50.4150513053298
50.4150513053278
50.415051305325
50.4150513053195
50.4150513053102
3501.04522953505
31509.4070658295
31509.4077835495
3501.04530928312
50.4150524536911
50.4150524537038
50.4150524537106
50.4150524537139
50.4150524537159
50.4150524537175
50.4150524537192
50.415052453721
50.4150524537227
50.4150524537244
50.4150524537259
50.4150524537274
50.4150524537287
50.4150524537299
50.415052453731
50.415052453732
50.415052453733
50.4150524537339
50.4150524537347
50.4150524537355
50.4150524537364
50.4150524537371
50.4150524537379
50.4150524537386
50.4150524537392
50.4150524537399
50.4150524537405
50.4150524537411
50.4150524537416
50.415052453742
50.4150524537424
50.4150524537426
50.4150524537427
50.4150524537426
50.4150524537424
50.415052453742
50.4150524537414
50.4150524537406
50.4150524537396
50.4150524537386
50.4150524537375
50.4150524537364
50.4150524537351
50.4150524537327
50.4150524537269
50.4150524537151
3501.04530928482
31509.407783566
31509.408501307
3501.04538903426
50.415053602109
50.4150536021217
50.4150536021281
50.4150536021306
50.4150536021318
50.4150536021328
50.4150536021339
50.4150536021351
50.4150536021363
50.4150536021376
50.4150536021388
50.41505360214
50.4150536021411
50.4150536021422
50.4150536021432
50.4150536021441
50.415053602145
50.4150536021458
50.4150536021466
50.4150536021474
50.4150536021482
50.415053602149
50.4150536021497
50.4150536021504
50.4150536021511
50.4150536021518
50.4150536021524
50.415053602153
50.4150536021535
50.415053602154
50.4150536021544
50.4150536021547
50.4150536021549
50.415053602155
50.4150536021549
50.4150536021548
50.4150536021545
50.4150536021541
50.4150536021535
50.415053602153
50.4150536021526
50.4150536021522
50.4150536021517
50.4150536021501
50.4150536021448
50.4150536021329
3501.04538903588
31509.4085013202
31509.40921907
3501.04546878577
50.4150547505307
50.4150547505427
50.4150547505483
50.41505475055
50.4150547505504
50.4150547505507
50.4150547505511
50.4150547505518
50.4150547505526
50.4150547505535
50.4150547505544
50.4150547505554
50.4150547505563
50.4150547505572
50.415054750558
50.4150547505588
50.4150547505597
50.4150547505605
50.4150547505612
50.415054750562
50.4150547505628
50.4150547505635
50.4150547505642
50.4150547505649
50.4150547505656
50.4150547505663
50.4150547505669
50.4150547505675
50.4150547505681
50.4150547505686
50.4150547505691
50.4150547505695
50.4150547505698
50.4150547505701
50.4150547505702
50.4150547505703
50.4150547505702
50.4150547505702
50.4150547505701
50.4150547505702
50.4150547505704
50.4150547505707
50.4150547505709
50.4150547505702
50.4150547505656
50.4150547505544
3501.04546878741
31509.4092190839
31509.4099368346
3501.04554853739
50.4150558989534
50.4150558989645
50.4150558989692
50.4150558989699
50.4150558989696
50.4150558989692
50.415055898969
50.4150558989692
50.4150558989695
50.4150558989701
50.4150558989707
50.4150558989714
50.4150558989721
50.4150558989728
50.4150558989736
50.4150558989743
50.4150558989751
50.4150558989758
50.4150558989766
50.4150558989773
50.415055898978
50.4150558989787
50.4150558989795
50.4150558989801
50.4150558989809
50.4150558989815
50.4150558989822
50.4150558989828
50.4150558989834
50.415055898984
50.4150558989845
50.415055898985
50.4150558989855
50.4150558989858
50.4150558989862
50.4150558989864
50.4150558989867
50.415055898987
50.4150558989874
50.415055898988
50.4150558989887
50.4150558989898
50.4150558989908
50.4150558989909
50.4150558989872
50.4150558989769
3501.04554853906
31509.4099368494
31509.4106545998
3501.04562828904
50.4150570473764
50.4150570473864
50.4150570473901
50.41505704739
50.4150570473888
50.4150570473877
50.4150570473871
50.4150570473867
50.4150570473867
50.4150570473868
50.4150570473872
50.4150570473877
50.4150570473882
50.4150570473888
50.4150570473894
50.4150570473901
50.4150570473908
50.4150570473914
50.4150570473921
50.4150570473928
50.4150570473935
50.4150570473942
50.4150570473949
50.4150570473956
50.4150570473963
50.415057047397
50.4150570473977
50.4150570473984
50.415057047399
50.4150570473996
50.4150570474002
50.4150570474008
50.4150570474014
50.4150570474019
50.4150570474024