/*--------------------------------*- C++ -*----------------------------------*\
  =========                 |
  \\      /  F ield         | OpenFOAM: The Open Source CFD Toolbox
   \\    /   O peration     | Website:  https://openfoam.org
    \\  /    A nd           | Version:  10
     \\/     M anipulation  |
\*---------------------------------------------------------------------------*/
FoamFile
{
    format      ascii;
    class       volScalarField;
    location    "8.2";
    object      p;
}
// * * * * * * * * * * * * * * * * * * * * * * * * * * * * * * * * * * * * * //

dimensions      [1 -1 -2 0 0 0 0];

internalField   nonuniform List<scalar> 
2500
(
100101.059958788
100101.059959501
100101.05996038
100101.059961199
100101.059961805
100101.059962237
100101.059962526
100101.05996272
100101.059962848
100101.059962932
100101.059962986
100101.059963022
100101.059963046
100101.059963061
100101.059963071
100101.059963077
100101.059963081
100101.059963084
100101.059963085
100101.059963086
100101.059963086
100101.059963086
100101.059963085
100101.059963084
100101.059963083
100101.059963081
100101.05996308
100101.059963078
100101.059963076
100101.059963073
100101.05996307
100101.059963067
100101.059963063
100101.059963058
100101.059963051
100101.059963042
100101.059963029
100101.059963012
100101.059962986
100101.059962948
100101.059962891
100101.059962805
100101.059962675
100101.059962479
100101.059962187
100101.059961753
100101.059961141
100101.059960313
100101.059959422
100101.059958711
100101.057708541
100101.057709083
100101.057709802
100101.05771051
100101.057711048
100101.057711442
100101.057711711
100101.057711894
100101.057712015
100101.057712096
100101.057712148
100101.057712183
100101.057712206
100101.057712221
100101.057712231
100101.057712238
100101.057712242
100101.057712245
100101.057712246
100101.057712247
100101.057712247
100101.057712247
100101.057712246
100101.057712245
100101.057712244
100101.057712242
100101.057712241
100101.057712239
100101.057712237
100101.057712234
100101.057712232
100101.057712228
100101.057712224
100101.057712219
100101.057712212
100101.057712203
100101.05771219
100101.057712173
100101.057712147
100101.05771211
100101.057712055
100101.057711972
100101.057711849
100101.057711664
100101.057711392
100101.057710995
100101.057710451
100101.057709736
100101.057709006
100101.057708466
100101.05545197
100101.055452375
100101.055452866
100101.055453392
100101.055453802
100101.055454115
100101.055454334
100101.055454486
100101.055454589
100101.055454659
100101.055454706
100101.055454737
100101.055454758
100101.055454772
100101.055454782
100101.055454788
100101.055454792
100101.055454795
100101.055454796
100101.055454797
100101.055454797
100101.055454797
100101.055454796
100101.055454795
100101.055454794
100101.055454793
100101.055454791
100101.055454789
100101.055454787
100101.055454785
100101.055454782
100101.055454778
100101.055454774
100101.055454769
100101.055454762
100101.055454753
100101.055454741
100101.055454725
100101.055454701
100101.055454668
100101.055454619
100101.055454547
100101.055454442
100101.055454287
100101.055454066
100101.05545375
100101.055453334
100101.055452801
100101.0554523
100101.055451894
100101.053189494
100101.05318974
100101.053190001
100101.053190322
100101.05319058
100101.053190788
100101.053190939
100101.053191049
100101.053191126
100101.05319118
100101.053191217
100101.053191243
100101.053191261
100101.053191274
100101.053191283
100101.053191289
100101.053191292
100101.053191295
100101.053191296
100101.053191297
100101.053191297
100101.053191297
100101.053191296
100101.053191295
100101.053191294
100101.053191292
100101.053191291
100101.053191289
100101.053191287
100101.053191285
100101.053191282
100101.053191278
100101.053191274
100101.053191269
100101.053191263
100101.053191255
100101.053191243
100101.053191229
100101.053191208
100101.05319118
100101.05319114
100101.053191084
100101.053191005
100101.053190893
100101.05319074
100101.053190528
100101.053190265
100101.053189938
100101.053189669
100101.053189418
100101.050921834
100101.050921927
100101.050921998
100101.050922135
100101.050922254
100101.050922364
100101.050922449
100101.050922517
100101.050922568
100101.050922606
100101.050922633
100101.050922654
100101.050922668
100101.050922679
100101.050922687
100101.050922692
100101.050922695
100101.050922697
100101.050922699
100101.050922699
100101.050922699
100101.050922699
100101.050922698
100101.050922697
100101.050922696
100101.050922695
100101.050922693
100101.050922691
100101.050922689
100101.050922687
100101.050922684
100101.050922681
100101.050922677
100101.050922672
100101.050922666
100101.050922659
100101.050922649
100101.050922636
100101.050922619
100101.050922596
100101.050922567
100101.050922527
100101.050922474
100101.050922404
100101.050922316
100101.050922203
100101.05092208
100101.050921939
100101.050921862
100101.050921763
100101.048649963
100101.04864993
100101.048649864
100101.048649858
100101.048649867
100101.048649896
100101.048649928
100101.04864996
100101.048649987
100101.048650011
100101.04865003
100101.048650044
100101.048650056
100101.048650064
100101.04865007
100101.048650075
100101.048650078
100101.04865008
100101.048650081
100101.048650081
100101.048650081
100101.048650081
100101.04865008
100101.048650079
100101.048650078
100101.048650076
100101.048650075
100101.048650073
100101.048650071
100101.048650069
100101.048650066
100101.048650063
100101.048650059
100101.048650055
100101.048650049
100101.048650043
100101.048650034
100101.048650023
100101.04865001
100101.048649993
100101.048649972
100101.048649947
100101.048649917
100101.048649883
100101.04864985
100101.048649818
100101.048649806
100101.04864981
100101.048649873
100101.048649899
100101.046374951
100101.046374835
100101.046374689
100101.046374587
100101.046374521
100101.046374493
100101.046374484
100101.046374488
100101.046374497
100101.046374508
100101.046374519
100101.046374529
100101.046374537
100101.046374543
100101.046374548
100101.046374551
100101.046374554
100101.046374555
100101.046374556
100101.046374556
100101.046374556
100101.046374556
100101.046374555
100101.046374554
100101.046374553
100101.046374551
100101.04637455
100101.046374548
100101.046374546
100101.046374544
100101.046374542
100101.046374539
100101.046374535
100101.046374531
100101.046374526
100101.04637452
100101.046374513
100101.046374505
100101.046374495
100101.046374483
100101.04637447
100101.046374457
100101.046374446
100101.04637444
100101.046374447
100101.046374474
100101.046374539
100101.04637464
100101.046374785
100101.046374897
100101.044097775
100101.044097618
100101.04409744
100101.044097285
100101.044097176
100101.04409711
100101.044097074
100101.044097058
100101.044097053
100101.044097055
100101.044097059
100101.044097064
100101.044097069
100101.044097073
100101.044097077
100101.044097079
100101.044097081
100101.044097082
100101.044097083
100101.044097083
100101.044097083
100101.044097082
100101.044097081
100101.04409708
100101.044097079
100101.044097078
100101.044097076
100101.044097074
100101.044097073
100101.04409707
100101.044097068
100101.044097065
100101.044097062
100101.044097059
100101.044097055
100101.04409705
100101.044097044
100101.044097037
100101.04409703
100101.044097023
100101.044097017
100101.044097014
100101.044097017
100101.044097031
100101.044097066
100101.044097131
100101.04409724
100101.044097394
100101.044097574
100101.044097729
100101.041819212
100101.041819048
100101.041818868
100101.041818695
100101.041818566
100101.041818481
100101.041818428
100101.041818399
100101.041818384
100101.041818378
100101.041818377
100101.041818378
100101.04181838
100101.041818382
100101.041818385
100101.041818386
100101.041818387
100101.041818388
100101.041818388
100101.041818388
100101.041818388
100101.041818387
100101.041818386
100101.041818385
100101.041818384
100101.041818382
100101.041818381
100101.041818379
100101.041818377
100101.041818375
100101.041818373
100101.041818371
100101.041818368
100101.041818365
100101.041818361
100101.041818357
100101.041818353
100101.041818349
100101.041818344
100101.041818341
100101.041818341
100101.041818345
100101.041818358
100101.041818386
100101.041818438
100101.041818523
100101.041818651
100101.041818826
100101.041819008
100101.041819172
100101.039539819
100101.039539671
100101.039539507
100101.039539337
100101.039539206
100101.039539112
100101.039539051
100101.039539013
100101.039538991
100101.03953898
100101.039538974
100101.039538972
100101.039538972
100101.039538972
100101.039538973
100101.039538974
100101.039538974
100101.039538974
100101.039538974
100101.039538974
100101.039538973
100101.039538972
100101.039538971
100101.03953897
100101.039538969
100101.039538968
100101.039538966
100101.039538965
100101.039538963
100101.039538961
100101.039538959
100101.039538957
100101.039538955
100101.039538952
100101.039538949
100101.039538946
100101.039538943
100101.039538941
100101.039538939
100101.039538939
100101.039538943
100101.039538953
100101.039538973
100101.03953901
100101.03953907
100101.039539163
100101.039539295
100101.039539467
100101.039539633
100101.039539783
100101.037259966
100101.037259842
100101.037259703
100101.037259547
100101.037259423
100101.037259329
100101.037259265
100101.037259223
100101.037259196
100101.03725918
100101.037259171
100101.037259166
100101.037259164
100101.037259163
100101.037259162
100101.037259162
100101.037259162
100101.037259161
100101.037259161
100101.03725916
100101.037259159
100101.037259158
100101.037259157
100101.037259156
100101.037259155
100101.037259154
100101.037259152
100101.037259151
100101.037259149
100101.037259147
100101.037259146
100101.037259144
100101.037259142
100101.03725914
100101.037259137
100101.037259135
100101.037259134
100101.037259133
100101.037259133
100101.037259136
100101.037259144
100101.037259158
100101.037259183
100101.037259225
100101.037259288
100101.037259381
100101.037259506
100101.037259664
100101.037259806
100101.037259932
100101.034979874
100101.034979776
100101.034979662
100101.034979526
100101.034979414
100101.034979325
100101.034979261
100101.034979217
100101.034979187
100101.034979168
100101.034979157
100101.034979149
100101.034979145
100101.034979142
100101.034979141
100101.034979139
100101.034979139
100101.034979138
100101.034979137
100101.034979136
100101.034979135
100101.034979134
100101.034979133
100101.034979132
100101.03497913
100101.034979129
100101.034979128
100101.034979126
100101.034979125
100101.034979123
100101.034979122
100101.03497912
100101.034979118
100101.034979117
100101.034979115
100101.034979114
100101.034979114
100101.034979114
100101.034979117
100101.034979122
100101.034979132
100101.03497915
100101.034979178
100101.034979221
100101.034979284
100101.034979373
100101.034979486
100101.034979624
100101.03497974
100101.03497984
100101.032699669
100101.032699595
100101.032699503
100101.032699388
100101.032699289
100101.032699207
100101.032699146
100101.032699101
100101.03269907
100101.032699049
100101.032699035
100101.032699026
100101.03269902
100101.032699016
100101.032699014
100101.032699012
100101.03269901
100101.032699009
100101.032699008
100101.032699007
100101.032699005
100101.032699004
100101.032699003
100101.032699002
100101.032699
100101.032698999
100101.032698998
100101.032698996
100101.032698995
100101.032698994
100101.032698992
100101.032698991
100101.03269899
100101.032698989
100101.032698988
100101.032698987
100101.032698988
100101.03269899
100101.032698994
100101.032699001
100101.032699014
100101.032699033
100101.032699063
100101.032699106
100101.032699167
100101.032699249
100101.032699349
100101.032699465
100101.032699559
100101.032699634
100101.030419416
100101.030419361
100101.030419289
100101.030419193
100101.030419107
100101.030419033
100101.030418975
100101.030418932
100101.0304189
100101.030418878
100101.030418863
100101.030418852
100101.030418845
100101.03041884
100101.030418836
100101.030418833
100101.030418831
100101.03041883
100101.030418828
100101.030418827
100101.030418825
100101.030418824
100101.030418823
100101.030418821
100101.03041882
100101.030418819
100101.030418818
100101.030418816
100101.030418815
100101.030418814
100101.030418813
100101.030418811
100101.030418811
100101.03041881
100101.03041881
100101.03041881
100101.030418812
100101.030418815
100101.03041882
100101.030418829
100101.030418843
100101.030418864
100101.030418894
100101.030418936
100101.030418993
100101.030419067
100101.030419154
100101.030419251
100101.030419325
100101.03041938
100101.028139148
100101.028139108
100101.02813905
100101.028138971
100101.028138897
100101.028138831
100101.028138777
100101.028138736
100101.028138705
100101.028138682
100101.028138666
100101.028138654
100101.028138646
100101.02813864
100101.028138635
100101.028138632
100101.028138629
100101.028138627
100101.028138625
100101.028138624
100101.028138622
100101.028138621
100101.02813862
100101.028138618
100101.028138617
100101.028138616
100101.028138614
100101.028138613
100101.028138612
100101.028138611
100101.02813861
100101.028138609
100101.028138608
100101.028138608
100101.028138608
100101.02813861
100101.028138612
100101.028138616
100101.028138622
100101.028138632
100101.028138647
100101.028138669
100101.028138698
100101.028138739
100101.028138792
100101.028138858
100101.028138932
100101.028139012
100101.02813907
100101.028139111
100101.025858877
100101.025858848
100101.025858802
100101.025858737
100101.025858674
100101.025858615
100101.025858566
100101.025858527
100101.025858497
100101.025858474
100101.025858457
100101.025858445
100101.025858436
100101.025858429
100101.025858424
100101.02585842
100101.025858417
100101.025858415
100101.025858413
100101.025858411
100101.025858409
100101.025858408
100101.025858406
100101.025858405
100101.025858403
100101.025858402
100101.025858401
100101.0258584
100101.025858399
100101.025858398
100101.025858397
100101.025858396
100101.025858396
100101.025858396
100101.025858397
100101.025858399
100101.025858402
100101.025858406
100101.025858414
100101.025858424
100101.02585844
100101.025858461
100101.02585849
100101.025858529
100101.025858577
100101.025858635
100101.025858698
100101.025858764
100101.02585881
100101.02585884
100101.02357861
100101.023578588
100101.023578552
100101.023578498
100101.023578444
100101.023578393
100101.023578348
100101.023578312
100101.023578283
100101.023578261
100101.023578244
100101.023578231
100101.023578221
100101.023578214
100101.023578208
100101.023578204
100101.0235782
100101.023578198
100101.023578195
100101.023578193
100101.023578191
100101.02357819
100101.023578188
100101.023578187
100101.023578185
100101.023578184
100101.023578183
100101.023578182
100101.023578181
100101.02357818
100101.023578179
100101.023578179
100101.023578179
100101.023578179
100101.023578181
100101.023578183
100101.023578186
100101.023578192
100101.0235782
100101.023578211
100101.023578226
100101.023578247
100101.023578275
100101.023578311
100101.023578354
100101.023578406
100101.02357846
100101.023578513
100101.02357855
100101.023578572
100101.021298347
100101.021298331
100101.021298302
100101.021298257
100101.021298211
100101.021298166
100101.021298127
100101.021298093
100101.021298066
100101.021298044
100101.021298027
100101.021298014
100101.021298004
100101.021297996
100101.02129799
100101.021297985
100101.021297982
100101.021297979
100101.021297976
100101.021297974
100101.021297972
100101.02129797
100101.021297969
100101.021297967
100101.021297966
100101.021297964
100101.021297963
100101.021297962
100101.021297961
100101.021297961
100101.02129796
100101.02129796
100101.02129796
100101.021297961
100101.021297962
100101.021297965
100101.021297969
100101.021297975
100101.021297983
100101.021297994
100101.02129801
100101.02129803
100101.021298056
100101.021298089
100101.021298129
100101.021298173
100101.021298219
100101.021298263
100101.021298293
100101.021298309
100101.019018089
100101.019018077
100101.019018053
100101.019018016
100101.019017977
100101.019017938
100101.019017902
100101.019017871
100101.019017846
100101.019017825
100101.019017808
100101.019017795
100101.019017785
100101.019017777
100101.019017771
100101.019017766
100101.019017762
100101.019017759
100101.019017756
100101.019017754
100101.019017752
100101.01901775
100101.019017748
100101.019017747
100101.019017745
100101.019017744
100101.019017743
100101.019017742
100101.019017741
100101.01901774
100101.01901774
100101.01901774
100101.01901774
100101.019017741
100101.019017743
100101.019017746
100101.01901775
100101.019017756
100101.019017765
100101.019017776
100101.019017791
100101.019017811
100101.019017835
100101.019017865
100101.0190179
100101.019017939
100101.019017978
100101.019018015
100101.019018038
100101.01901805
100101.016737834
100101.016737825
100101.016737806
100101.016737776
100101.016737742
100101.016737708
100101.016737676
100101.016737648
100101.016737624
100101.016737605
100101.016737589
100101.016737576
100101.016737566
100101.016737558
100101.016737551
100101.016737546
100101.016737542
100101.016737538
100101.016737536
100101.016737533
100101.016737531
100101.016737529
100101.016737527
100101.016737526
100101.016737524
100101.016737523
100101.016737522
100101.016737521
100101.01673752
100101.01673752
100101.016737519
100101.016737519
100101.01673752
100101.016737521
100101.016737523
100101.016737526
100101.016737531
100101.016737537
100101.016737545
100101.016737557
100101.016737571
100101.01673759
100101.016737612
100101.01673764
100101.016737671
100101.016737705
100101.016737738
100101.016737768
100101.016737787
100101.016737796
100101.014457583
100101.014457576
100101.014457561
100101.014457536
100101.014457507
100101.014457477
100101.014457449
100101.014457424
100101.014457402
100101.014457383
100101.014457368
100101.014457355
100101.014457345
100101.014457337
100101.014457331
100101.014457326
100101.014457321
100101.014457318
100101.014457315
100101.014457312
100101.01445731
100101.014457308
100101.014457306
100101.014457305
100101.014457303
100101.014457302
100101.014457301
100101.0144573
100101.014457299
100101.014457299
100101.014457299
100101.014457299
100101.014457299
100101.014457301
100101.014457303
100101.014457306
100101.014457311
100101.014457317
100101.014457325
100101.014457336
100101.01445735
100101.014457367
100101.014457388
100101.014457413
100101.01445744
100101.01445747
100101.014457498
100101.014457522
100101.014457538
100101.014457544
100101.012177335
100101.01217733
100101.012177317
100101.012177296
100101.012177272
100101.012177246
100101.012177221
100101.012177198
100101.012177178
100101.012177161
100101.012177146
100101.012177134
100101.012177124
100101.012177117
100101.01217711
100101.012177105
100101.0121771
100101.012177097
100101.012177094
100101.012177091
100101.012177089
100101.012177087
100101.012177085
100101.012177083
100101.012177082
100101.012177081
100101.01217708
100101.012177079
100101.012177078
100101.012177078
100101.012177078
100101.012177078
100101.012177079
100101.01217708
100101.012177082
100101.012177086
100101.01217709
100101.012177096
100101.012177104
100101.012177115
100101.012177128
100101.012177144
100101.012177163
100101.012177185
100101.012177209
100101.012177234
100101.012177258
100101.012177279
100101.012177291
100101.012177296
100101.009897089
100101.009897085
100101.009897074
100101.009897057
100101.009897037
100101.009897014
100101.009896993
100101.009896972
100101.009896954
100101.009896937
100101.009896924
100101.009896913
100101.009896903
100101.009896895
100101.009896889
100101.009896884
100101.009896879
100101.009896876
100101.009896872
100101.00989687
100101.009896867
100101.009896865
100101.009896864
100101.009896862
100101.009896861
100101.009896859
100101.009896858
100101.009896857
100101.009896857
100101.009896856
100101.009896856
100101.009896857
100101.009896858
100101.009896859
100101.009896861
100101.009896865
100101.009896869
100101.009896875
100101.009896883
100101.009896892
100101.009896905
100101.009896919
100101.009896937
100101.009896956
100101.009896978
100101.009896999
100101.009897019
100101.009897036
100101.009897046
100101.00989705
100101.007616844
100101.007616842
100101.007616833
100101.007616819
100101.007616802
100101.007616783
100101.007616763
100101.007616745
100101.007616728
100101.007616714
100101.007616701
100101.00761669
100101.007616681
100101.007616674
100101.007616667
100101.007616662
100101.007616658
100101.007616654
100101.007616651
100101.007616648
100101.007616646
100101.007616644
100101.007616642
100101.007616641
100101.007616639
100101.007616638
100101.007616637
100101.007616636
100101.007616635
100101.007616635
100101.007616635
100101.007616635
100101.007616636
100101.007616638
100101.00761664
100101.007616643
100101.007616648
100101.007616653
100101.007616661
100101.00761667
100101.007616681
100101.007616694
100101.00761671
100101.007616727
100101.007616746
100101.007616764
100101.007616781
100101.007616795
100101.007616803
100101.007616806
100101.005336602
100101.0053366
100101.005336593
100101.005336581
100101.005336567
100101.005336551
100101.005336534
100101.005336518
100101.005336503
100101.005336489
100101.005336477
100101.005336467
100101.005336459
100101.005336452
100101.005336446
100101.005336441
100101.005336436
100101.005336433
100101.00533643
100101.005336427
100101.005336424
100101.005336422
100101.005336421
100101.005336419
100101.005336418
100101.005336416
100101.005336415
100101.005336414
100101.005336414
100101.005336414
100101.005336414
100101.005336414
100101.005336415
100101.005336416
100101.005336418
100101.005336422
100101.005336426
100101.005336431
100101.005336438
100101.005336446
100101.005336457
100101.005336469
100101.005336483
100101.005336498
100101.005336514
100101.00533653
100101.005336544
100101.005336555
100101.005336561
100101.005336563
100101.00305636
100101.003056359
100101.003056354
100101.003056344
100101.003056332
100101.003056318
100101.003056304
100101.00305629
100101.003056276
100101.003056264
100101.003056254
100101.003056244
100101.003056236
100101.003056229
100101.003056224
100101.003056219
100101.003056215
100101.003056211
100101.003056208
100101.003056205
100101.003056203
100101.003056201
100101.003056199
100101.003056197
100101.003056196
100101.003056195
100101.003056194
100101.003056193
100101.003056192
100101.003056192
100101.003056192
100101.003056192
100101.003056193
100101.003056195
100101.003056197
100101.0030562
100101.003056204
100101.003056209
100101.003056215
100101.003056223
100101.003056232
100101.003056243
100101.003056255
100101.003056268
100101.003056282
100101.003056295
100101.003056307
100101.003056316
100101.003056321
100101.003056322
100101.00077612
100101.000776119
100101.000776115
100101.000776108
100101.000776098
100101.000776086
100101.000776074
100101.000776062
100101.00077605
100101.000776039
100101.000776029
100101.000776021
100101.000776013
100101.000776007
100101.000776001
100101.000775997
100101.000775993
100101.000775989
100101.000775986
100101.000775983
100101.000775981
100101.000775979
100101.000775977
100101.000775976
100101.000775974
100101.000775973
100101.000775972
100101.000775971
100101.000775971
100101.00077597
100101.00077597
100101.000775971
100101.000775971
100101.000775973
100101.000775975
100101.000775977
100101.000775981
100101.000775986
100101.000775991
100101.000775998
100101.000776007
100101.000776016
100101.000776027
100101.000776039
100101.00077605
100101.000776061
100101.000776071
100101.000776078
100101.000776081
100101.000776082
100100.99849588
100100.99849588
100100.998495878
100100.998495872
100100.998495864
100100.998495854
100100.998495844
100100.998495833
100100.998495823
100100.998495813
100100.998495805
100100.998495797
100100.99849579
100100.998495784
100100.998495779
100100.998495774
100100.998495771
100100.998495767
100100.998495764
100100.998495762
100100.998495759
100100.998495757
100100.998495756
100100.998495754
100100.998495753
100100.998495751
100100.99849575
100100.99849575
100100.998495749
100100.998495749
100100.998495749
100100.998495749
100100.99849575
100100.998495751
100100.998495753
100100.998495755
100100.998495758
100100.998495763
100100.998495768
100100.998495774
100100.998495781
100100.99849579
100100.998495799
100100.998495809
100100.998495818
100100.998495827
100100.998495835
100100.99849584
100100.998495842
100100.998495842
100100.996215641
100100.996215642
100100.99621564
100100.996215637
100100.99621563
100100.996215623
100100.996215614
100100.996215605
100100.996215596
100100.996215588
100100.99621558
100100.996215573
100100.996215566
100100.996215561
100100.996215556
100100.996215552
100100.996215548
100100.996215545
100100.996215542
100100.99621554
100100.996215538
100100.996215536
100100.996215534
100100.996215532
100100.996215531
100100.99621553
100100.996215529
100100.996215528
100100.996215527
100100.996215527
100100.996215527
100100.996215527
100100.996215528
100100.996215529
100100.99621553
100100.996215532
100100.996215535
100100.996215539
100100.996215544
100100.996215549
100100.996215556
100100.996215563
100100.996215571
100100.996215579
100100.996215587
100100.996215594
100100.9962156
100100.996215603
100100.996215604
100100.996215603
100100.993935403
100100.993935404
100100.993935404
100100.993935402
100100.993935397
100100.993935391
100100.993935384
100100.993935376
100100.993935369
100100.993935362
100100.993935355
100100.993935348
100100.993935343
100100.993935338
100100.993935333
100100.993935329
100100.993935326
100100.993935323
100100.99393532
100100.993935318
100100.993935316
100100.993935314
100100.993935312
100100.99393531
100100.993935309
100100.993935308
100100.993935307
100100.993935306
100100.993935305
100100.993935305
100100.993935305
100100.993935305
100100.993935305
100100.993935306
100100.993935308
100100.99393531
100100.993935312
100100.993935316
100100.99393532
100100.993935324
100100.99393533
100100.993935336
100100.993935342
100100.993935349
100100.993935355
100100.993935361
100100.993935365
100100.993935367
100100.993935367
100100.993935365
100100.991655165
100100.991655167
100100.991655168
100100.991655167
100100.991655164
100100.99165516
100100.991655154
100100.991655148
100100.991655142
100100.991655135
100100.991655129
100100.991655124
100100.991655119
100100.991655114
100100.99165511
100100.991655107
100100.991655103
100100.991655101
100100.991655098
100100.991655096
100100.991655094
100100.991655092
100100.99165509
100100.991655089
100100.991655087
100100.991655086
100100.991655085
100100.991655084
100100.991655083
100100.991655083
100100.991655083
100100.991655083
100100.991655083
100100.991655084
100100.991655085
100100.991655087
100100.991655089
100100.991655092
100100.991655095
100100.991655099
100100.991655104
100100.991655109
100100.991655114
100100.991655119
100100.991655124
100100.991655128
100100.99165513
100100.991655131
100100.99165513
100100.991655128
100100.989374927
100100.989374931
100100.989374932
100100.989374933
100100.989374931
100100.989374928
100100.989374924
100100.989374919
100100.989374914
100100.989374909
100100.989374904
100100.989374899
100100.989374895
100100.989374891
100100.989374887
100100.989374884
100100.989374881
100100.989374878
100100.989374876
100100.989374874
100100.989374872
100100.98937487
100100.989374868
100100.989374867
100100.989374865
100100.989374864
100100.989374863
100100.989374862
100100.989374861
100100.989374861
100100.989374861
100100.989374861
100100.989374861
100100.989374861
100100.989374862
100100.989374864
100100.989374866
100100.989374868
100100.989374871
100100.989374874
100100.989374878
100100.989374882
100100.989374886
100100.989374889
100100.989374893
100100.989374895
100100.989374896
100100.989374895
100100.989374894
100100.989374891
100100.98709469
100100.987094695
100100.987094697
100100.987094699
100100.987094699
100100.987094697
100100.987094695
100100.987094691
100100.987094687
100100.987094683
100100.987094679
100100.987094675
100100.987094671
100100.987094667
100100.987094664
100100.987094661
100100.987094658
100100.987094656
100100.987094654
100100.987094652
100100.98709465
100100.987094648
100100.987094646
100100.987094645
100100.987094643
100100.987094642
100100.987094641
100100.98709464
100100.98709464
100100.987094639
100100.987094639
100100.987094638
100100.987094639
100100.987094639
100100.98709464
100100.987094641
100100.987094642
100100.987094644
100100.987094646
100100.987094649
100100.987094651
100100.987094654
100100.987094657
100100.98709466
100100.987094662
100100.987094663
100100.987094663
100100.98709466
100100.987094658
100100.987094654
100100.984814454
100100.984814459
100100.984814462
100100.984814466
100100.984814467
100100.984814467
100100.984814465
100100.984814463
100100.98481446
100100.984814457
100100.984814453
100100.98481445
100100.984814447
100100.984814444
100100.984814441
100100.984814438
100100.984814436
100100.984814433
100100.984814431
100100.984814429
100100.984814428
100100.984814426
100100.984814424
100100.984814423
100100.984814422
100100.98481442
100100.984814419
100100.984814418
100100.984814418
100100.984814417
100100.984814416
100100.984814416
100100.984814416
100100.984814416
100100.984814417
100100.984814418
100100.984814419
100100.98481442
100100.984814421
100100.984814423
100100.984814425
100100.984814427
100100.984814429
100100.984814431
100100.984814431
100100.984814431
100100.984814429
100100.984814426
100100.984814422
100100.984814417
100100.982534217
100100.982534223
100100.982534228
100100.982534233
100100.982534235
100100.982534236
100100.982534236
100100.982534235
100100.982534233
100100.98253423
100100.982534228
100100.982534225
100100.982534223
100100.98253422
100100.982534218
100100.982534215
100100.982534213
100100.982534211
100100.982534209
100100.982534207
100100.982534205
100100.982534204
100100.982534202
100100.982534201
100100.9825342
100100.982534198
100100.982534197
100100.982534196
100100.982534196
100100.982534195
100100.982534194
100100.982534194
100100.982534194
100100.982534194
100100.982534194
100100.982534194