/*--------------------------------*- C++ -*----------------------------------*\
  =========                 |
  \\      /  F ield         | OpenFOAM: The Open Source CFD Toolbox
   \\    /   O peration     | Website:  https://openfoam.org
    \\  /    A nd           | Version:  10
     \\/     M anipulation  |
\*---------------------------------------------------------------------------*/
FoamFile
{
    format      ascii;
    class       volScalarField;
    location    "8.2";
    object      p_rgh;
}
// * * * * * * * * * * * * * * * * * * * * * * * * * * * * * * * * * * * * * //

dimensions      [1 -1 -2 0 0 0 0];

internalField   nonuniform List<scalar> 
2500
(
101.173483323568
101.173484988874
101.173489305482
101.173492907939
101.173495371972
101.173496959833
101.173497944605
101.173498546254
101.173498905759
101.173499116878
101.173499239376
101.173499309691
101.173499350058
101.173499373588
101.173499387543
101.173499395998
101.173499401033
101.173499404074
101.173499405864
101.173499406694
101.173499406883
101.173499406606
101.173499405952
101.173499405006
101.173499403842
101.173499402474
101.173499400873
101.173499399039
101.173499396944
101.173499394514
101.173499391633
101.173499388125
101.17349938376
101.17349937807
101.173499370387
101.173499359371
101.173499342753
101.173499316457
101.173499272845
101.173499199256
101.173499073571
101.173498859192
101.173498497737
101.173497896016
101.173496912583
101.173495326875
101.173492856775
101.173489229986
101.17348488509
101.173483280465
101.173768504785
101.173776405398
101.17378747114
101.173796279472
101.173802284771
101.17380614701
101.173808548338
101.173810009757
101.173810876164
101.17381137643
101.173811657631
101.17381181191
101.173811895002
101.173811939385
101.173811963163
101.173811976041
101.173811983055
101.173811986926
101.173811989051
101.173811990011
101.173811990258
101.173811990026
101.1738119894
101.173811988454
101.173811987304
101.173811985922
101.173811984321
101.173811982488
101.173811980392
101.173811977947
101.173811974993
101.173811971341
101.173811966568
101.173811959961
101.173811950095
101.173811934263
101.17381190724
101.173811859087
101.173811771499
101.173811612272
101.173811326065
101.173810821507
101.173809953732
101.173808495863
101.17380610315
101.173802248974
101.173796229821
101.173787359396
101.173776217431
101.173768587192
101.174074033814
101.174088776956
101.174104936479
101.17411725859
101.174125539124
101.174130817482
101.174134080007
101.174136054964
101.174137220281
101.174137889582
101.174138263013
101.174138465823
101.174138573479
101.174138629809
101.174138659117
101.174138674454
101.17413868256
101.174138686867
101.174138689123
101.174138690156
101.174138690418
101.17413869017
101.174138689545
101.174138688613
101.174138687464
101.174138686081
101.174138684495
101.174138682647
101.174138680566
101.174138678107
101.174138675153
101.174138671427
101.17413866648
101.174138659393
101.174138648392
101.174138629969
101.17413859714
101.174138536691
101.174138424103
101.174138215734
101.174137836599
101.174137162656
101.174135996072
101.174134025656
101.174130773259
101.174125500431
101.174117188843
101.174104756064
101.174088437649
101.174073965638
101.174365807368
101.174385075574
101.174403118173
101.174416289068
101.174424902842
101.17443026886
101.174433518754
101.174435451394
101.174436574642
101.174437211695
101.174437563386
101.17443775275
101.174437852635
101.174437904643
101.174437931651
101.174437945781
101.174437953261
101.174437957248
101.174437959315
101.174437960246
101.174437960464
101.174437960188
101.174437959548
101.174437958616
101.174437957437
101.17443795607
101.174437954483
101.174437952664
101.174437950584
101.174437948168
101.174437945272
101.174437941663
101.174437936919
101.174437930196
101.174437919923
101.174437902853
101.174437872585
101.174437816837
101.174437712572
101.174437518202
101.174437161259
101.174436519563
101.174435394089
101.174433463515
101.174430218758
101.174424848286
101.17441618249
101.174402855919
101.174384563041
101.174365382874
101.174618334393
101.174638788958
101.174655976327
101.174668004547
101.174675645321
101.174680288183
101.174683039426
101.174684645972
101.174685566206
101.174686082508
101.174686365455
101.174686517246
101.17468659734
101.174686639264
101.174686661267
101.174686672937
101.174686679224
101.174686682614
101.174686684375
101.174686685146
101.174686685263
101.174686684928
101.174686684259
101.174686683298
101.174686682149
101.174686680766
101.174686679165
101.174686677376
101.174686675353
101.174686672981
101.174686670187
101.174686666767
101.174686662358
101.17468665629
101.17468664734
101.174686632934
101.174686608036
101.174686562939
101.174686479251
101.174686323458
101.174686036233
101.1746855159
101.174684592974
101.174682986108
101.174680234879
101.174675578892
101.174667872416
101.174655661525
101.174638149911
101.174617547978
101.174818650528
101.174837373328
101.174851865842
101.174861606138
101.174867611582
101.174871167677
101.174873228156
101.174874409757
101.174875077428
101.174875448763
101.174875651399
101.174875760247
101.174875818077
101.174875848752
101.174875865181
101.174875874131
101.174875879064
101.174875881785
101.174875883182
101.174875883764
101.174875883764
101.174875883356
101.174875882643
101.174875881668
101.174875880504
101.174875879107
101.17487587755
101.174875875775
101.174875873796
101.174875871511
101.174875868848
101.174875865647
101.174875861616
101.174875856304
101.174875848796
101.174875837285
101.174875818251
101.174875784855
101.174875724129
101.174875612211
101.174875406301
101.174875031778
101.174874361532
101.174873178388
101.174871115029
101.174867542126
101.174861469175
101.174851544376
101.174836696286
101.174817638806
101.174965541024
101.174980787095
101.17499182852
101.174998963252
101.175003229917
101.175005688827
101.17500708047
101.1750078638
101.175008300605
101.175008541788
101.175008673221
101.17500874422
101.175008782448
101.175008803169
101.175008814607
101.175008821039
101.175008824706
101.175008826744
101.175008827777
101.175008828141
101.175008827995
101.175008827515
101.175008826758
101.175008825754
101.175008824561
101.175008823193
101.17500882165
101.175008819904
101.175008817983
101.175008815786
101.175008813269
101.175008810314
101.175008806691
101.175008802093
101.175008795952
101.175008787061
101.175008773222
101.175008750099
101.175008709441
101.175008635968
101.175008502018
101.175008258389
101.17500781946
101.17500703437
101.175005639219
101.175003164593
101.174998838876
101.174991540276
101.174980159849
101.174964486549
101.175065801392
101.175077059772
101.175084762377
101.175089546727
101.17509231728
101.175093866856
101.175094721009
101.175095191706
101.175095450279
101.175095591985
101.175095669241
101.175095711369
101.175095734507
101.175095747429
101.175095754836
101.175095759143
101.17509576166
101.175095763072
101.175095763712
101.175095763843
101.175095763567
101.175095762985
101.175095762155
101.175095761122
101.175095759914
101.175095758546
101.175095757048
101.17509575536
101.175095753482
101.175095751416
101.175095749044
101.175095746337
101.175095743121
101.175095739207
101.175095734259
101.175095727565
101.175095717874
101.175095702711
101.17509567739
101.175095633167
101.175095553859
101.175095410203
101.175095149913
101.175094677732
101.175093820784
101.175092259247
101.175089443466
101.175084529023
101.175076539468
101.17506485364
101.175129869924
101.175137507409
101.175142472828
101.175145429981
101.17514708158
101.175147971895
101.175148446142
101.175148699826
101.175148836075
101.175148909751
101.175148949813
101.175148971874
101.175148984286
101.175148991475
101.175148995753
101.175148998358
101.175148999871
101.175149000686
101.175149000948
101.175149000832
101.175149000381
101.175148999697
101.175148998809
101.175148997732
101.175148996525
101.175148995157
101.175148993672
101.175148992057
101.175148990267
101.175148988303
101.17514898612
101.175148983675
101.175148980867
101.175148977592
101.175148973649
101.175148968745
101.175148962211
101.175148952883
101.175148938433
101.175148914423
101.175148872528
101.175148797178
101.175148659517
101.175148404727
101.175147928705
101.175147030634
101.175145348228
101.175142297579
101.17513711295
101.175129109484
101.175168391463
101.175173195312
101.175176170989
101.175177858648
101.17517875896
101.175179218815
101.175179450322
101.175179567261
101.175179626807
101.175179657657
101.175179673985
101.175179682905
101.175179688042
101.175179691127
101.175179693048
101.175179694226
101.175179694881
101.175179695114
101.175179695012
101.175179694619
101.175179694023
101.175179693222
101.175179692247
101.175179691141
101.175179689904
101.175179688551
101.175179687096
101.175179685524
101.175179683836
101.175179682003
101.175179680024
101.175179677841
101.17517967544
101.175179672748
101.175179669721
101.175179666243
101.17517966211
101.17517965693
101.175179649828
101.175179639031
101.175179620972
101.175179588594
101.175179527781
101.175179409998
101.175179177502
101.175178713369
101.175177794139
101.175176045115
101.17517291641
101.17516783376
101.175190276117
101.175193096031
101.175194758369
101.175195642383
101.175196082229
101.175196285054
101.175196374446
101.175196411976
101.17519642695
101.175196432509
101.175196434415
101.175196435026
101.175196435273
101.175196435404
101.175196435492
101.175196435506
101.175196435361
101.175196435055
101.175196434589
101.175196433949
101.175196433163
101.175196432232
101.175196431184
101.175196430035
101.175196428783
101.175196427444
101.175196426018
101.17519642452
101.175196422919
101.175196421245
101.175196419455
101.175196417564
101.175196415541
101.175196413402
101.17519641119
101.17519640892
101.17519640665
101.175196404438
101.175196402241
101.175196399796
101.175196396216
101.175196389187
101.17519637302
101.175196334734
101.175196244847
101.17519604
101.175195589691
101.175194668627
101.1751929077
101.175189894595
101.175202064056
101.175203615421
101.175204479354
101.175204894971
101.175205075138
101.175205136955
101.175205149717
101.175205144624
101.17520513534
101.175205126725
101.175205120133
101.17520511552
101.175205112449
101.175205110427
101.175205109059
101.17520510804
101.175205107196
101.175205106396
101.175205105566
101.175205104664
101.175205103689
101.175205102641
101.175205101506
101.175205100299
101.175205099018
101.175205097679
101.175205096297
101.175205094871
101.175205093386
101.175205091844
101.175205090258
101.175205088643
101.175205086998
101.175205085412
101.175205083928
101.175205082691
101.175205081905
101.175205081876
101.175205083011
101.175205085819
101.175205090767
101.175205097956
101.175205106076
101.175205110441
101.175205097345
101.175205034771
101.175204849424
101.175204413128
101.175203490129
101.175201815277
101.175208098284
101.175208899309
101.175209312423
101.175209475798
101.17520952136
101.175209512527
101.175209487701
101.175209461609
101.175209440044
101.175209423818
101.175209412308
101.175209404348
101.175209398978
101.175209395311
101.175209392764
101.175209390873
101.175209389374
101.175209388108
101.175209386915
101.175209385765
101.175209384601
101.175209383422
101.1752093822
101.175209380948
101.175209379653
101.175209378329
101.17520937699
101.175209375622
101.17520937424
101.175209372843
101.17520937146
101.175209370107
101.175209368856
101.17520936775
101.175209366949
101.1752093666
101.175209367022
101.175209368666
101.17520937213
101.1752093783
101.175209388195
101.175209403038
101.17520942344
101.175209448804
101.175209473309
101.175209481939
101.175209434106
101.175209260095
101.175208813846
101.175207939232
101.175211035865
101.175211422902
101.175211598733
101.175211637266
101.175211619717
101.175211579626
101.175211538706
101.175211503578
101.17521147638
101.175211456255
101.175211441921
101.175211431837
101.175211424823
101.17521141989
101.175211416339
101.175211413705
101.175211411639
101.175211409907
101.175211408394
101.175211406997
101.175211405643
101.175211404334
101.175211403039
101.175211401729
101.175211400419
101.175211399095
101.175211397785
101.17521139649
101.17521139521
101.175211393958
101.17521139278
101.175211391703
101.175211390801
101.17521139016
101.175211389942
101.175211390379
101.175211391834
101.175211394759
101.17521139991
101.175211408248
101.175211420996
101.175211439724
101.175211465801
101.175211500173
101.175211540729
101.175211580776
101.175211597481
101.175211553928
101.175211360605
101.175210932357
101.175212392278
101.175212565286
101.175212624905
101.175212607981
101.175212565155
101.175212514223
101.175212468326
101.17521243036
101.175212401096
101.175212379225
101.175212363305
101.175212351838
101.175212343631
101.175212337694
101.175212333343
101.175212330054
101.175212327449
101.175212325325
101.175212323506
101.175212321876
101.175212320362
101.175212318922
101.175212317539
101.175212316171
101.175212314847
101.175212313537
101.175212312271
101.175212311035
101.175212309856
101.17521230875
101.17521230776
101.175212306931
101.175212306363
101.175212306145
101.17521230648
101.175212307586
101.175212309856
101.175212313829
101.175212320173
101.175212329937
101.175212344286
101.175212364804
101.175212392947
101.175212430127
101.175212475588
101.175212526461
101.175212569055
101.175212583825
101.175212515445
101.17521232061
101.175212980321
101.17521304953
101.175213056908
101.175213019509
101.175212969887
101.175212917922
101.175212872404
101.1752128347
101.175212805261
101.175212782822
101.175212766131
101.175212753791
101.175212744725
101.175212738017
101.175212732996
101.17521272914
101.175212726113
101.175212723625
101.175212721515
101.175212719667
101.175212717993
101.175212716436
101.175212714981
101.17521271357
101.175212712231
101.175212710921
101.175212709684
101.17521270852
101.175212707429
101.175212706468
101.175212705653
101.175212705057
101.17521270478
101.17521270494
101.175212705741
101.175212707443
101.175212710397
101.175212715156
101.175212722403
101.17521273304
101.175212748203
101.175212769333
101.175212797651
101.17521283454
101.175212879578
101.175212931397
101.175212980961
101.175213017515
101.175213005961
101.175212925693
101.175213212337
101.175213234601
101.175213221271
101.175213179624
101.175213131442
101.175213082694
101.175213039882
101.175213003953
101.175212975329
101.175212953036
101.175212936068
101.175212923248
101.1752129136
101.17521290631
101.17521290078
101.175212896473
101.175212893053
101.175212890244
101.175212887902
101.175212885864
101.175212884031
101.175212882372
101.175212880829
101.175212879389
101.175212878021
101.175212876726
101.175212875518
101.175212874412
101.175212873422
101.175212872578
101.175212871924
101.175212871545
101.175212871531
101.175212872025
101.175212873233
101.175212875401
101.175212878908
101.175212884264
101.175212892093
101.175212903268
101.175212918737
101.175212939736
101.175212967239
101.175213002338
101.175213044611
101.175213093127
101.17521314125
101.175213182592
101.175213193943
101.175213166294
101.175213287279
101.175213290087
101.17521327053
101.17521323137
101.175213187773
101.175213143768
101.175213104565
101.175213071052
101.175213043782
101.175213022085
101.17521300519
101.175212992152
101.175212982154
101.175212974471
101.175212968534
101.175212963863
101.175212960123
101.175212957067
101.175212954491
101.175212952279
101.175212950329
101.175212948569
101.175212946953
101.175212945469
101.175212944101
101.175212942821
101.175212941642
101.17521294058
101.175212939677
101.175212938935
101.17521293844
101.175212938251
101.175212938469
101.175212939255
101.175212940783
101.175212943344
101.175212947259
101.175212953036
101.175212961258
101.175212972652
101.175212988062
101.175213008464
101.175213034643
101.175213067312
101.175213105933
101.175213149618
101.175213193099
101.175213232098
101.175213250695
101.175213245311
101.175213296592
101.175213292401
101.175213272698
101.175213238268
101.17521320004
101.175213161099
101.175213125724
101.175213094859
101.175213069218
101.17521304838
101.175213031849
101.17521301884
101.175213008697
101.175213000766
101.175212994523
101.175212989576
101.175212985589
101.175212982314
101.175212979564
101.175212977207
101.17521297514
101.175212973292
101.175212971633
101.175212970105
101.175212968708
101.175212967442
101.175212966293
101.175212965289
101.175212964445
101.175212963819
101.175212963441
101.175212963426
101.175212963833
101.175212964852
101.175212966657
101.175212969509
101.175212973743
101.175212979782
101.175212988179
101.175212999558
101.175213014634
101.175213034192
101.175213058741
101.175213088747
101.175213123497
101.175213162074
101.175213200069
101.175213234354
101.175213253533
101.175213256443
101.175213280439
101.175213274517
101.175213256851
101.1752132275
101.17521319451
101.175213160357
101.175213128707
101.175213100534
101.175213076684
101.175213056908
101.175213040915
101.175213028124
101.175213017967
101.175213009919
101.175213003502
101.175212998365
101.175212994189
101.17521299074
101.175212987844
101.17521298537
101.175212983202
101.175212981296
101.175212979579
101.175212978022
101.17521297661
101.175212975359
101.175212974238
101.175212973278
101.175212972492
101.175212971953
101.175212971692
101.175212971793
101.175212972375
101.175212973583
101.175212975591
101.175212978647
101.175212983071
101.175212989256
101.175212997667
101.175213008872
101.175213023409
101.17521304189
101.175213064678
101.175213091978
101.175213122973
101.17521315669
101.175213189374
101.175213218536
101.175213235838
101.175213241106
101.175213255585
101.175213249924
101.175213234863
101.175213210183
101.175213181938
101.175213152179
101.17521312405
101.175213098511
101.175213076465
101.175213057883
101.175213042588
101.175213030161
101.175213020135
101.175213012088
101.175213005597
101.175213000344
101.175212996037
101.175212992472
101.175212989459
101.175212986898
101.175212984657
101.175212982678
101.175212980932
101.175212979346
101.175212977934
101.175212976683
101.175212975577
101.17521297466
101.175212973933
101.175212973467
101.175212973292
101.17521297351
101.175212974224
101.175212975548
101.175212977701
101.175212980903
101.175212985429
101.175212991628
101.175212999922
101.175213010763
101.175213024617
101.175213041934
101.175213062888
101.175213087525
101.175213114984
101.175213144248
101.175213172173
101.175213196577
101.175213211362
101.175213216615
101.175213228693
101.17521322392
101.175213211391
101.1752131908
101.175213166702
101.175213140887
101.175213115988
101.175213092982
101.175213072784
101.175213055452
101.175213040973
101.175213029012
101.175213019247
101.175213011302
101.175213004826
101.175212999515
101.175212995149
101.175212991497
101.175212988412
101.175212985778
101.175212983493
101.17521298147
101.175212979681
101.17521297808
101.175212976668
101.175212975417
101.17521297434
101.175212973438
101.175212972768
101.175212972346
101.175212972259
101.17521297255
101.17521297335
101.175212974777
101.175212977018
101.175212980277
101.175212984803
101.175212990915
101.175212998962
101.175213009352
101.175213022405
101.17521303847
101.175213057577
101.175213079681
101.175213103881
101.175213129172
101.175213152877
101.175213173163
101.175213185445
101.175213189927
101.175213202121
101.175213198367
101.175213188078
101.175213170995
101.17521315052
101.175213128226
101.175213106282
101.175213085691
101.175213067283
101.175213051247
101.175213037655
101.175213026276
101.175213016846
101.17521300909
101.175213002687
101.175212997405
101.175212993025
101.175212989328
101.175212986214
101.175212983522
101.175212981194
101.175212979142
101.175212977338
101.175212975722
101.175212974311
101.175212973059
101.175212971997
101.175212971124
101.175212970498
101.17521297012
101.175212970076
101.175212970425
101.175212971284
101.175212972768
101.175212975038
101.175212978284
101.175212982751
101.175212988688
101.175212996415
101.175213006223
101.175213018403
101.175213033159
101.17521305049
101.175213070179
101.175213091396
101.175213113136
101.175213133174
101.175213149938
101.175213159979
101.1752131635
101.175213176612
101.175213173832
101.175213165494
101.175213151393
101.175213134091
101.175213114897
101.175213095688
101.175213077338
101.175213060691
101.175213045979
101.175213033319
101.17521302258
101.175213013572
101.175213006063
101.17521299982
101.175212994611
101.17521299026
101.175212986578
101.175212983435
101.175212980743
101.175212978385
101.175212976319
101.1752129745
101.17521297287
101.175212971459
101.175212970222
101.175212969159
101.175212968315
101.175212967704
101.17521296737
101.175212967355
101.175212967733
101.175212968621
101.17521297012
101.175212972361
101.175212975548
101.17521297987
101.175212985574
101.175212992879
101.175213002061
101.17521301331
101.175213026771
101.175213042327
101.175213059745
101.175213078226
101.175213096838
101.175213113689
101.175213127455
101.175213135532
101.175213138151
101.175213152281
101.17521315036
101.175213143695
101.175213132199
101.175213117662
101.175213101262
101.175213084513
101.175213068302
101.175213053342
101.175213039925
101.17521302824
101.175213018185
101.175213009672
101.175213002483
101.175212996444
101.175212991366
101.175212987073
101.175212983435
101.175212980306
101.175212977614
101.175212975257
101.17521297319
101.175212971357
101.175212969742
101.17521296833
101.175212967093
101.175212966045
101.175212965216
101.175212964619
101.175212964299
101.175212964299
101.175212964692
101.175212965565
101.175212967035
101.175212969232
101.175212972303
101.175212976435
101.17521298182
101.175212988659
101.175212997157
101.175213007446
101.175213019596
101.175213033464
101.175213048758
101.175213064751
101.175213080554
101.175213094626
101.175213105773
101.175213112205
101.17521311398
101.175213129012
101.175213127877
101.175213122697
101.175213113442
101.175213101335
101.175213087437
101.175213072973
101.175213058741
101.175213045397
101.175213033275
101.175213022565
101.175213013237
101.175213005248
101.175212998438
101.175212992646
101.175212987742
101.175212983566
101.175212979986
101.175212976916
101.175212974238
101.175212971895
101.175212969829
101.17521296801
101.175212966395
101.175212964983
101.175212963746
101.175212962713
101.175212961884
101.175212961301
101.175212960981
101.175212960981
101.17521296136
101.175212962204
101.175212963615
101.175212965725
101.175212968636
101.175212972521
101.175212977541
101.175212983871
101.175212991642
101.175213000955
101.175213011811
101.175213024064
101.175213037379
101.175213051087
101.175213064387
101.175213076
101.175213084905
101.175213089868
101.175213090886
101.175213106661
101.175213106239
101.175213102397
101.175213095135
101.175213085211
101.175213073569
101.175213061171
101.175213048788
101.175213036986
101.17521302613
101.17521301641
101.175213007838
101.175213000402
101.175212994
101.175212988514
101.175212983813
101.175212979782
101.175212976304
101.175212973278
101.175212970658
101.17521296833
101.175212966293
101.175212964488
101.175212962888
101.175212961476
101.175212960254
101.175212959221
101.175212958391
101.175212957794
101.17521295746
101.175212957445
101.175212957809
101.175212958595
101.175212959919
101.175212961884
101.175212964605
101.175212968214
101.175212972827
101.175212978604
101.175212985632
101.17521299397
101.175213003575
101.17521301427
101.175213025737
101.17521303735
101.17521304838
101.175213057824
101.175213064736
101.175213068374
101.175213068709
101.175213085065
101.175213085342
101.175213082679
101.175213077207
101.175213069233
101.175213059643
101.175213049166
101.175213038499
101.175213028182
101.175213018549
101.175213009803
101.175213002003
101.175212995149
101.175212989197
101.175212984032
101.175212979564
101.175212975708
101.175212972346
101.175212969421
101.175212966846
101.175212964576
101.175212962567
101.175212960763
101.175212959177
101.17521295778
101.175212956558
101.175212955524
101.175212954695
101.175212954098
101.175212953749
101.175212953691
101.175212953996
101.175212954709
101.175212955932
101.175212957736
101.175212960225
101.175212963513
101.175212967704
101.175212972899
101.175212979171
101.175212986534
101.175212994916
101.175213004142
101.175213013863
101.175213023569
101.175213032548
101.175213040042
101.175213045179
101.175213047653
101.175213047318
101.175213064096
101.175213065057
101.1752130635
101.175213059672
101.175213053488
101.175213045761
101.175213037044
101.175213028007
101.175213019087
101.175213010632
101.175213002847
101.175212995819
101.175212989576
101.175212984075
101.175212979273
101.175212975068
101.1752129714
101.175212968184
101.175212965361
101.175212962858
101.175212960647
101.175212958682
101.175212956907
101.175212955335
101.175212953953
101.17521295273
101.175212951697
101.175212950868
101.175212950242
101.175212949864
101.175212949762
101.175212950009
101.175212950635
101.175212951712
101.175212953327
101.175212955568
101.175212958507
101.175212962247
101.175212966846
101.175212972361
101.175212978764
101.175212985952
101.175212993781
101.175213001901
101.175213009832
101.175213016948
101.175213022652
101.175213026159
101.175213027542
101.175213026552
101.175213043636
101.175213045295
101.1752130448
101.175213042501
101.175213037961
101.175213031966
101.175213024879
101.175213017355
101.175213009759
101.175213002454
101.1752129956
101.175212989343
101.175212983711
101.175212978691
101.175212974253
101.175212970324
101.175212966875
101.175212963833
101.175212961127
101.175212958711
101.175212956558
101.175212954637
101.175212952905
101.175212951362
101.17521294998
101.175212948772
101.175212947725
101.17521294688
101.175212946226
101.175212945818
101.175212945658
101.175212945818
101.175212946328
101.175212947259
101.17521294867
101.175212950635
101.175212953211
101.175212956485
101.175212960487
101.17521296523
101.175212970687
101.17521297677
101.175212983275
101.175212989867
101.175212996168
101.175213001552
101.175213005627
101.17521300762
101.175213007955
101.175213006296
101.17521302354
101.175213025941
101.175213026465
101.175213025635
101.175213022623
101.175213018229
101.175213012684
101.175213006572
101.175213000242
101.175212994014
101.175212988077
101.175212982576
101.175212977556
101.17521297303
101.17521296897
101.175212965347
101.175212962131
101.175212959264
101.175212956688
101.175212954375
101.175212952308
101.175212950431
101.175212948743
101.175212947215
101.175212945847
101.175212944639
101.175212943606
101.175212942733
101.175212942049
101.175212941584
101.175212941365
101.175212941438
101.175212941816
101.175212942588
101.175212943766
101.17521294544
101.175212947652
101.175212950431
101.175212953822
101.175212957824
101.175212962378
101.175212967355
101.175212972608
101.175212977774
101.175212982562
101.175212986345
101.175212988906
101.175212989445
101.17521298879
101.175212986418
101.175213003749
101.175213006951
101.175213008493
101.17521300909
101.175213007518
101.175213004637
101.175213000504
101.175212995731
101.17521299058
101.175212985414
101.175212980364
101.175212975606
101.175212971197
101.175212967151
101.175212963499
101.175212960181
101.175212957212
101.17521295452
101.17521295209
101.175212949893
101.175212947899
101.175212946095
101.175212944436
101.175212942951
101.175212941598
101.17521294039
101.175212939343
101.175212938455
101.175212937742
101.175212937218
101.175212936927
101.175212936883
101.175212937145
101.175212937727
101.175212938673
101.175212940041
101.17521294186
101.175212944159
101.175212946953
101.175212950213
101.17521295388
101.175212957824
101.175212961884
101.175212965725
101.175212969087
101.175212971371
101.175212972506
101.175212971648
101.175212969989
101.175212966831
101.175212984177
101.175212988266
101.175212990856
101.17521299285
101.175212992661
101.175212991191
101.175212988397
101.175212984861
101.175212980845
101.175212976654
101.175212972477
101.175212968446
101.175212964634
101.175212961083
101.175212957824
101.17521295484
101.175212952105
101.175212949616
101.175212947346
101.175212945265
101.175212943373
101.175212941613
101.175212940012
101.175212938542
101.175212937218
101.175212936025
101.175212934948
101.175212934046
101.175212933289
101.175212932707
101.175212932329
101.175212932183
101.175212932285
101.175212932678
101.175212933391
101.175212934439
101.175212935879
101.175212937684
101.175212939881
101.175212942413
101.175212945236
101.17521294819
101.17521295113
101.17521295372
101.175212955757
101.17521295663
101.175212956397
101.175212954156
101.175212951479
101.175212947477
101.17521296475
101.175212969858
101.17521297354
101.17521297693
101.175212978065
101.175212977934
101.175212976392
101.175212974034
101.17521297108
101.175212967835
101.175212964474
101.175212961141
101.175212957925
101.175212954869
101.175212952003
101.17521294934
101.175212946866
101.175212944581
101.175212942471
101.175212940521
101.175212938702
101.175212937029
101.175212935472
101.175212934046
101.175212932721
101.175212931528
101.175212930451
101.17521292952
101.17521292872
101.175212928079
101.175212927614
101.175212927337
101.175212927294
101.175212927483
101.175212927948
101.175212928691
101.175212929724
101.175212931048
101.175212932663
101.175212934511
101.17521293649
101.175212938513
101.175212940376
101.175212941802
101.175212942617
101.175212942137
101.175212940609
101.175212936971
101.17521293326
101.175212928254
101.175212945411
101.175212951697
101.175212956514
101.175212961331
101.175212963746
101.175212964896
101.175212964503
101.175212963251
101.175212961287
101.175212958944
101.175212956383
101.175212953734
101.175212951086
101.17521294851
101.175212946051
101.175212943694
101.175212941496
101.175212939415
101.175212937465
101.175212935632
101.175212933929
101.175212932314
101.175212930815
101.175212929418
101.175212928123
101.17521292693
101.175212925838
101.175212924863
101.175212924019
101.175212923321
101.175212922753
101.175212922375
101.175212922157
101.175212922157
101.175212922361
101.175212922783
101.175212923423