/*--------------------------------*- C++ -*----------------------------------*\
  =========                 |
  \\      /  F ield         | OpenFOAM: The Open Source CFD Toolbox
   \\    /   O peration     | Website:  https://openfoam.org
    \\  /    A nd           | Version:  10
     \\/     M anipulation  |
\*---------------------------------------------------------------------------*/
FoamFile
{
    format      ascii;
    class       surfaceScalarField;
    location    "8.2";
    object      phi;
}
// * * * * * * * * * * * * * * * * * * * * * * * * * * * * * * * * * * * * * //

dimensions      [1 0 -1 0 0 0 0];

internalField   nonuniform List<scalar> 
4900
(
-5.24422752988197e-12
5.26509376830645e-12
-7.91024418926315e-12
2.69826865995929e-12
-7.72530663592337e-12
-1.5052911589874e-13
-6.15374653400951e-12
-1.53788611688218e-12
-4.44104895971745e-12
-1.67961948030734e-12
-3.06072253357804e-12
-1.34746876496444e-12
-2.0731537037529e-12
-9.54813483843829e-13
-1.39972938603902e-12
-6.40808074523918e-13
-9.49210399715564e-13
-4.18123402994968e-13
-6.48772420499188e-13
-2.68341393635435e-13
-4.47253489684185e-13
-1.69777398781736e-13
-3.10293580462077e-13
-1.05607185561185e-13
-2.15393176336351e-13
-6.39482583858154e-14
-1.48046247506243e-13
-3.67937845834323e-14
-9.89789261941613e-14
-1.8899487143912e-14
-6.22837083225085e-14
-6.89400620681321e-15
-3.41728951982026e-14
1.34774962765655e-15
-1.21689191477028e-14
7.13587367275352e-15
5.39762790684856e-15
1.12803693841175e-14
1.96729911661717e-14
1.43030579246061e-14
3.14829165990574e-14
1.6525176373616e-14
4.14564272001205e-14
1.81413434988436e-14
5.00859244318721e-14
1.92884081805641e-14
5.77776336378387e-14
2.00514838042149e-14
6.49017187123287e-14
2.04655315151072e-14
7.17920260697415e-14
2.05656277001143e-14
7.87908576865418e-14
2.03426992682144e-14
8.62554945803359e-14
1.97800341948381e-14
9.45960981686199e-14
1.88247044183856e-14
1.04298956970901e-13
1.73997501115952e-14
1.15984823918187e-13
1.53706483900918e-14
1.30477088029624e-13
1.25346708728005e-14
1.48907769034965e-13
8.58397584481901e-15
1.72943602995354e-13
2.98463121244295e-15
2.05067487316861e-13
-5.07929121921427e-15
2.49094589834639e-13
-1.693887056716e-14
3.10942463578837e-13
-3.46989417056391e-14
3.998934830063e-13
-6.17263120553067e-14
5.30413728177192e-13
-1.03211023979556e-13
7.24998091221526e-13
-1.67189679013085e-13
1.01798369120271e-12
-2.65515546950037e-13
1.46064806480423e-12
-4.15138573625413e-13
2.1265484741389e-12
-6.38341291856516e-13
3.1092743382394e-12
-9.55132849748242e-13
4.49276321393298e-12
-1.35578525807376e-12
6.22391152860426e-12
-1.70309872488626e-12
7.82646577151539e-12
-1.57372998515469e-12
8.01824517318678e-12
-1.61642920775977e-13
5.29334972579245e-12
2.75547832768319e-12
5.31478522700314e-12
-8.47479684556938e-12
1.37691730736612e-11
-1.4100368264144e-11
8.36606729736324e-12
-1.42957664372316e-11
8.92246255885945e-14
-1.173900216694e-11
-4.05122055845678e-12
-8.68823331385916e-12
-4.6877483822891e-12
-6.13546417528078e-12
-3.85798140467482e-12
-4.25755059643736e-12
-2.79071448346141e-12
-2.95041389627078e-12
-1.9062017177771e-12
-2.05787773554256e-12
-1.26926207145128e-12
-1.44965273441889e-12
-8.35588530167642e-13
-1.03130908108819e-12
-5.47614429369649e-13
-7.38759692807832e-13
-3.58149098599797e-13
-5.29635074255751e-13
-2.33572132498181e-13
-3.76373349707179e-13
-1.51053672285047e-13
-2.61138563398172e-13
-9.56111788805584e-14
-1.72360773847645e-13
-5.76028554905035e-14
-1.02461415299587e-13
-3.0907121400063e-14
-4.63504885812309e-14
-1.17249186062702e-14
-5.22069607689219e-16
2.34032371349459e-15
3.75210923718901e-14
1.28166936975001e-14
6.96388317972477e-14
2.06636467715308e-14
9.72647476695205e-14
2.65004396768633e-14
1.21570126155796e-13
3.07258431396898e-14
1.43535726250509e-13
3.36132375536934e-14
1.64052752217692e-13
3.5287586880309e-14
1.83954355935447e-13
3.58391921291013e-14
2.04072317081639e-13
3.52599332712475e-14
2.25292673103025e-13
3.34769459286601e-14
2.48590493452914e-13
3.0348251630274e-14
2.75117043080993e-13
2.56191588743409e-14
3.06294546779319e-13
1.88843029672221e-14
3.43962317348775e-13
9.52449174563123e-15
3.90592683701367e-13
-3.40052144581581e-15
4.49684783596606e-13
-2.14507327825677e-14
5.26329109736305e-13
-4.70319302160531e-14
6.28146304184998e-13
-8.40061707039837e-14
7.66719525319685e-13
-1.38441675395229e-13
9.59902248685691e-13
-2.1998051181153e-13
1.23525103068584e-12
-3.43521397030285e-13
1.63515328079352e-12
-5.31942162283783e-13
2.22377040781412e-12
-8.18882482189084e-13
3.09595048634188e-12
-1.2519886494421e-12
4.38361573811197e-12
-1.890615082131e-12
6.24762746455951e-12
-2.78367216731937e-12
8.80240062664306e-12
-3.87486842001378e-12
1.18846206997673e-11
-4.74905037508434e-12
1.44981162473612e-11
-4.14978649806463e-12
1.43188315768282e-11
5.66335033458256e-14
8.5912160009086e-12
8.52122052153566e-12
1.39310326575793e-11
-7.38116121579809e-12
2.1182063641851e-11
-1.35956396814178e-11
1.46247274761351e-11
-1.4370569783119e-11
9.0989421241983e-13
-1.22256186930557e-11
-6.15154644211679e-12
-9.35326593187392e-12
-7.51647061071156e-12
-6.83149694061076e-12
-6.33672261121405e-12
-4.90715526538999e-12
-4.67245901407406e-12
-3.52443890731755e-12
-3.2467288472722e-12
-2.54974058196231e-12
-2.20220858451817e-12
-1.86313822126335e-12
-1.48091337665342e-12
-1.37406199435791e-12
-9.95911162595398e-13
-1.01953019155933e-12
-6.72410561339386e-13
-7.56965144942768e-13
-4.56371736933266e-13
-5.58025549966222e-13
-3.10719193121785e-13
-4.03877839221127e-13
-2.1095513474106e-13
-2.81937287557136e-13
-1.41183920426696e-13
-1.8366978863869e-13
-9.12299904725812e-14
-1.03157274721726e-13
-5.46784606565616e-14
-3.61782023035008e-14
-2.74338038690184e-14
2.03777635247963e-14
-6.85892200328985e-15
6.88964891181598e-14
8.73141714279445e-15
1.11261445555427e-13
2.04565943213814e-14
1.49042365147149e-13
2.90293239807196e-14
1.83588982468007e-13
3.49406297321163e-14
2.1612260566346e-13
3.84441850500102e-14
2.47814551088193e-13
3.9677209726392e-14
2.79817654882901e-13
3.86509262914452e-14
3.13354956746303e-13
3.52188796193652e-14
3.49756626338269e-13
2.91327262970336e-14
3.90579694385411e-13
1.99095790231551e-14
4.37689235057337e-13
6.8357702843871e-15
4.93438059547225e-13
-1.11948336801708e-14
5.60907666145739e-13
-3.5850691764583e-14
6.44299469035694e-13
-6.9810338960378e-14
7.49534858845827e-13
-1.1719922541477e-13
8.85165034038651e-13
-1.84508479383875e-13
1.06379026520513e-12
-2.81856924542624e-13
1.30426029650386e-12
-4.2513895938035e-13
1.63495598757733e-12
-6.38789458871985e-13
2.09852573402012e-12
-9.59962686664424e-13
2.75815600656987e-12
-1.44284424575656e-12
3.70503453590991e-12
-2.16308927144913e-12
5.06098289441772e-12
-3.21068028809311e-12
6.96463658065832e-12
-4.65129801921922e-12
9.48277285914004e-12
-6.35666481382863e-12
1.23836407665065e-11
-7.61285306099118e-12
1.45887163447747e-11
-6.31641829216528e-12
1.38434680031021e-11
8.41855254120907e-13
7.53389669044155e-12
1.48693180922802e-11
2.14897028237781e-11
-4.62554577977902e-12
2.58408031291341e-11
-9.68533457008525e-12
1.97298509494679e-11
-1.09393844394427e-11
2.21044399158324e-12
-9.85456369497016e-12
-7.19119284412713e-12
-7.95756913785092e-12
-9.36950995932921e-12
-6.12716653505996e-12
-8.12399347833269e-12
-4.63277180833462e-12
-6.12433171061264e-12
-3.49513915192442e-12
-4.34237315173021e-12
-2.64868027486381e-12
-3.00719438555348e-12
-2.02077582201528e-12
-2.06785750814917e-12
-1.55099902225749e-12
-1.42523908603672e-12
-1.19463680994786e-12
-9.88829194687327e-13
-9.19795808421502e-13
-6.91761233600615e-13
-7.04141680100867e-13
-4.87396493414979e-13
-5.32050782245054e-13
-3.44520571702669e-13
-3.9254195740296e-13
-2.42593750086948e-13
-2.77774846811318e-13
-1.68296005312887e-13
-1.82061078863389e-13
-1.13061465670673e-13
-1.01166122526589e-13
-7.13384399799168e-14
-3.18536136102564e-14
-3.94925547034137e-14
2.84320764411756e-14
-1.51581110767338e-14
8.17687573730996e-14
3.26063053149659e-15
1.2991306467648e-13
1.67982928309229e-14
1.74414329469098e-13
2.61505684660848e-14
2.16673206644589e-13
3.17199049913368e-14
2.58043097557448e-13
3.36886125337141e-14
2.99863288414749e-13
3.20810342135906e-14
3.43537184088503e-13
2.66857953189253e-14
3.90590956502359e-13
1.71302912172076e-14
4.42761980361718e-13
2.72030774501808e-15
5.02107186522052e-13
-1.75774930717204e-14
5.71148574935883e-13
-4.53339469484326e-14
6.53101554479181e-13
-8.29107072483168e-14
7.52161641310418e-13
-1.33965156594245e-13
8.7401420617135e-13
-2.04111259610543e-13
1.02648111273774e-12
-3.01976196776178e-13
1.22055589528582e-12
-4.40851314980717e-13
1.47186230258357e-12
-6.41263088496715e-13
1.80278486983049e-12
-9.34410865202089e-13
2.24531236793631e-12
-1.36705882619793e-12
2.84441348818218e-12
-2.00637894700082e-12
3.66113392860172e-12
-2.94410809039493e-12
4.76969860063921e-12
-4.28340195611253e-12
6.239795910051e-12
-6.08536120543763e-12
8.05981463785842e-12
-8.14028116220938e-12
9.97436561069725e-12
-9.49019550056987e-12
1.11093557794262e-11
-7.41270249567185e-12
9.89620430672504e-12
2.0952550548951e-12
4.77442715839812e-12
2.00295946798502e-11
2.62886690590461e-11
-1.74599988020233e-12
2.76205224578208e-11
-4.95441521678407e-12
2.29836068864947e-11
-6.48001596046136e-12
3.78196919784351e-12
-6.52834386227471e-12
-7.09844209378147e-12
-5.79694489509208e-12
-1.00578827153841e-11
-4.84891762912129e-12
-9.02999921309762e-12
-3.94069680877494e-12
-6.99128452712176e-12
-3.1644295906092e-12
-5.07800060664612e-12
-2.53022387611001e-12
-3.60132588479196e-12
-2.021492502497e-12
-2.53704748047833e-12
-1.6150850715552e-12
-1.79261429860276e-12
-1.28958442621757e-12
-1.27578761074679e-12
-1.02720576602924e-12
-9.16068334414246e-13
-8.13907290949421e-13
-6.63074043227507e-13
-6.38841266207421e-13
-4.82393137636973e-13
-4.93690610323373e-13
-3.5095523264467e-13
-3.72066924860535e-13
-2.53508048144298e-13
-2.69046177502863e-13
-1.80021863279523e-13
-1.80776262337342e-13
-1.23871562583332e-13
-1.04180833999224e-13
-8.06486027400173e-14
-3.6763035880468e-14
-4.74056767918719e-14
2.35722109756452e-14
-2.21476195469008e-14
7.86191099693014e-14
-3.53883038196981e-15
1.29985857610194e-13
9.30116642978508e-15
1.79145817796064e-13
1.69086882839231e-14
2.27519099922921e-13
1.95178625043939e-14
2.76522559036996e-13
1.71558886376597e-14
3.27617712636528e-13
9.56476921713524e-15
3.82396262159138e-13
-3.75898247975099e-15
4.42634568677914e-13
-2.36948069635334e-14
5.10400658225169e-13
-5.15677009252914e-14
5.88160662095284e-13
-8.93470215037112e-14
6.78960548040374e-13
-1.39972318237186e-13
7.86614407514768e-13
-2.07869336827761e-13
9.16028744695957e-13
-2.9974246431122e-13
1.07354900070018e-12
-4.2565803660355e-13
1.26747195860307e-12
-6.00857584987765e-13
1.50862899886539e-12
-8.4840453294351e-13
1.81107823546896e-12
-1.20272685415719e-12
2.19266739941128e-12
-1.71438139624847e-12
2.67499944981517e-12
-2.45430122701103e-12
3.28162733570889e-12
-3.5161761850533e-12
4.03011698991222e-12
-4.99717142732485e-12
4.91295417736341e-12
-6.93327051675315e-12
5.84435373715081e-12
-9.03637379462857e-12
6.57951749927329e-12
-1.01892370672765e-11
6.56436922819056e-12
-7.35991335862882e-12
5.08333885084583e-12
3.61540175821439e-12
1.85493119333884e-12
2.32952421814568e-11
2.81669120562327e-11
4.58477833039375e-13
2.71957355391293e-11
-9.63104078878791e-13
2.44497857092157e-11
-2.53777632416145e-12
5.40141671945062e-12
-3.45015972841663e-12
-6.14294597461525e-12
-3.69335809825274e-12
-9.77312031665529e-12
-3.52100678539439e-12
-9.16193915842909e-12
-3.15222036656055e-12
-7.32052674714845e-12
-2.7246029893366e-12
-5.46677286481253e-12
-2.30708048489089e-12
-3.98060381445965e-12
-1.92941562485151e-12
-2.87700848683366e-12
-1.6006802314711e-12
-2.08414519377328e-12
-1.32023387258664e-12
-1.51950084407749e-12
-1.08328846604144e-12
-1.11672717140027e-12
-8.83725355531705e-13
-8.26776511269e-13
-7.1545690268555e-13
-6.15204589474176e-13
-5.729897172538e-13
-4.58347278521095e-13
-4.5159992872321e-13
-3.40179800541005e-13
-3.47331344832298e-13
-2.49905908236418e-13
-2.56896138268604e-13
-1.80229934235093e-13
-1.77546665379972e-13
-1.26203495452587e-13
-1.06975418848255e-13
-8.44382776109166e-14
-4.31910970656131e-14
-5.2625030034953e-14
1.554086227527e-14
-2.91707074791748e-14
7.07979084828593e-14
-1.30389322067956e-14
1.24043651921219e-13
-3.57981578473074e-15
1.76682669259521e-13
-5.02805374314668e-16
2.30126160446463e-13
-3.78748686247729e-15
2.85822132119399e-13
-1.37302351202502e-14
3.4532958605634e-13
-3.09461279587036e-14
4.10366702487608e-13
-5.64742268498025e-14
4.82890871592506e-13
-9.18796974508806e-14
5.65182708797675e-13
-1.39453797115311e-13
6.59952639376733e-13
-2.02565815018173e-13
7.70452795966458e-13
-2.86182763969473e-13
9.00593220568113e-13
-3.97665423551896e-13
1.05504179021653e-12
-5.4783709399628e-13
1.23924686928351e-12
-7.52719988328834e-13
1.4592451885537e-12
-1.03596545882896e-12
1.72111910730884e-12
-1.43204822672887e-12
2.02964310410249e-12
-1.99021993870463e-12
2.38548602049994e-12
-2.77731149544574e-12
2.77965063843494e-12
-3.87735124929437e-12
3.18261337470724e-12
-5.36697672931973e-12
3.52649554142514e-12
-7.24378509827327e-12
3.67733470203517e-12
-9.15347887148143e-12
3.42486695012583e-12
-9.90224809852191e-12
2.52701376486601e-12
-6.42605641698412e-12
9.92855819925112e-13
5.18698865121149e-12
-4.09368508739272e-13
2.47329099718102e-11
2.777954673941e-11
1.7698524467718e-12
2.54584122746877e-11
1.67701125251762e-12
2.45848637194799e-11
2.29828993282313e-13
6.89039948175531e-12
-1.16265852543769e-12
-4.71039744820354e-12
-2.03546708368084e-12
-8.86186108972156e-12
-2.40382009824548e-12
-8.75636638503982e-12
-2.43595453335729e-12
-7.25209926496364e-12
-2.28341910334858e-12
-5.5837459095546e-12
-2.04766307847054e-12
-4.18140416083647e-12
-1.78753434058142e-12
-3.1027106904903e-12
-1.53402637045446e-12
-2.30370452747338e-12
-1.30148463939119e-12
-1.71853840727679e-12
-1.09499859149455e-12
-1.290127571138e-12
-9.14794966257985e-13
-9.74292398461968e-13
-7.58799570114174e-13
-7.38889667028223e-13
-6.24045540346297e-13
-5.61149216645278e-13
-5.0739184722155e-13
-4.25217793139795e-13
-4.05876610355804e-13
-3.20119794616246e-13
-3.16838303186855e-13
-2.38257167624234e-13
-2.37930498472981e-13
-1.74367588124128e-13
-1.67106019385876e-13
-1.24761917164677e-13
-1.02547448313489e-13
-8.69020071098548e-14
-4.26350522792431e-14
-5.89971894436507e-14
1.41220046570738e-14
-3.98834965228635e-14
6.91212313842114e-14
-2.88181520083719e-14
1.23709077150145e-13
-2.5461222876251e-14
1.79236471861696e-13
-2.97971959940917e-14
2.37084665760416e-13
-4.21542737210667e-14
2.98725767307913e-13
-6.32386603120387e-14
3.65759609108683e-13
-9.42190349104168e-14
4.39968124852421e-13
-1.36842118940906e-13
5.23371969597085e-13
-1.93637495346745e-13
6.18276510392471e-13
-2.68259628198076e-13
7.27301396580651e-13
-3.65988018345423e-13
8.5334998377143e-13
-4.94466658646643e-13
9.99491703387944e-13
-6.64684343015531e-13
1.16862609677878e-12
-8.92492375431328e-13
1.36274007698979e-12
-1.20062897249307e-12
1.58152404642009e-12
-1.6212735023596e-12
1.81977836968788e-12
-2.19878848445777e-12
2.06301147001756e-12
-2.99071657506054e-12
2.27998264250935e-12
-4.06434196970091e-12
2.4114380964983e-12
-5.46829189849362e-12
2.35573782901692e-12
-7.157753535058e-12
1.96288149271374e-12
-8.72996471463559e-12
1.07099581969835e-12
-8.97898348068669e-12
-3.22686796635807e-13
-4.9995984569943e-12
-1.7374786223168e-12
6.6358360504883e-12
-1.78068402908427e-12
2.48082197229483e-11
2.6018330978047e-11
2.31805869418842e-12
2.31709785088627e-11
3.00685037686163e-12
2.39350067490418e-11
1.79203126924038e-12
8.14335826215326e-12
2.61661719359932e-13
-3.14366320192709e-12
-9.05000223884014e-13
-7.66045958260646e-12
-1.57238101631989e-12
-8.05550596092259e-12
-1.85408254696442e-12
-6.93786733557215e-12
-1.88988595588807e-12
-5.5161476975694e-12
-1.78947379336202e-12
-4.25061852201977e-12
-1.62394525086215e-12
-3.23754998065713e-12
-1.43569276636649e-12
-2.46171987315456e-12
-1.24792006742587e-12
-1.87648970715224e-12
-1.07215164162107e-12
-1.43646502016803e-12
-9.1310521048887e-13
-1.10427943332365e-12
-7.71770371745961e-13
-8.51518412734549e-13
-6.47237905856704e-13
-6.57311666020632e-13
-5.37750751140194e-13
-5.06651342361208e-13
-4.41264376549227e-13
-3.88849364477685e-13
-3.55735442561931e-13
-2.9630424533947e-13
-2.79239655428245e-13
-2.23634984089166e-13
-2.10010468651465e-13
-1.66992581076059e-13
-1.46441047524873e-13
-1.23680971573157e-13
-8.70547779271509e-14
-9.17780426936109e-14
-3.04806221215975e-14
-7.00169286864681e-14
2.45846875553425e-14
-5.75864034898495e-14
7.94025908969986e-14
-5.41063631512569e-14
1.35236894539897e-13
-5.95640497509117e-14
1.93372261750234e-13
-7.43101645129368e-14
2.55168320742777e-13
-9.91273789472052e-14
3.22072165541534e-13
-1.35271616344762e-13
3.95662057206598e-13
-1.84621012617546e-13
4.77667001220779e-13
-2.498563662187e-13
5.69968781589206e-13
-3.3478466565908e-13
6.74568134946649e-13
-4.44803807912281e-13
7.93437669494045e-13
-5.87528070428499e-13
9.28258761008143e-13
-7.73654831107747e-13
1.07985003044928e-12
-1.01817195926117e-12
1.24711413210318e-12
-1.3419002950058e-12
1.42520799809455e-12
-1.77327495448448e-12
1.60241733850129e-12
-2.34978666688621e-12
1.75525620173991e-12
-3.11721119435721e-12
1.84082789214533e-12
-4.12342861820591e-12
1.78721943471047e-12
-5.38805408420197e-12
1.48379658910396e-12
-6.82753703820435e-12
7.91045274369694e-13
-8.01013989462738e-12
-4.00083245831191e-13
-7.76013742980744e-12
-1.94173389039325e-12
-3.42894674973583e-12
-3.13212055966715e-12
7.85641652120558e-12
-2.37464647459439e-12
2.40790161918327e-11
2.36606366800854e-11
2.35396705522817e-12
2.08444031503568e-11
3.37355492282715e-12
2.29493251601427e-11
2.42809130319276e-12
9.12146484895243e-12
9.9147942917537e-13
-1.67609032118231e-12
-2.21662251194027e-13
-6.41788236031674e-12
-1.00056374146613e-12
-7.24837548840233e-12
-1.40820649308702e-12
-6.50290750786926e-12
-1.55755185127217e-12
-5.3401851130349e-12
-1.54970628197866e-12
-4.23240596860278e-12
-1.45554240534662e-12
-3.30612727461748e-12
-1.32065266733174e-12
-2.57143837849646e-12
-1.17210226355006e-12
-2.00025080464598e-12
-1.02493736049976e-12
-1.55920010350661e-12
-8.86708585692673e-13
-1.21842127665848e-12
-7.6056819684792e-13
-9.53900194415293e-13
-6.47188678317539e-13
-7.47246243103752e-13
-5.45952430695824e-13
-5.84739044328158e-13
-4.55621786621532e-13
-4.56310283394139e-13
-3.7472363526265e-13
-3.54591394514408e-13
-3.01739479375299e-13
-2.74246707932677e-13
-2.35190499695411e-13
-2.11386203644943e-13
-1.73688495681557e-13
-1.63223567361614e-13
-1.1591322216678e-13
-1.27769164826751e-13
-6.06243411214657e-14
-1.03676196237415e-13
-6.62620727596925e-15
-9.00899739942268e-14
4.72434632003556e-14
-8.65983481319991e-14
1.02146624226815e-13
-9.3188504497147e-14
1.59260656464788e-13
-1.10228649375208e-13
2.19817002056713e-13
-1.38555282757564e-13
2.85099831717891e-13
-1.79478172896712e-13
3.56471683354907e-13
-2.34954649028073e-13
4.35370973498871e-13
-3.07741724578116e-13
5.23273605109845e-13
-4.01682571996681e-13
6.21602868414165e-13
-5.221225120024e-13
7.31520489728359e-13
-6.7641472961872e-13
8.53565891625542e-13
-8.74632252373274e-13
9.86964065204028e-13
-1.13044819457586e-12
1.12844440560704e-12
-1.46218741080639e-12
1.270293693003e-12
-1.89384233498779e-12
1.39723088214356e-12
-2.45533788507369e-12
1.48182897695883e-12
-3.18030712269662e-12
1.47786312781962e-12
-4.09784104826793e-12
1.31346847330027e-12
-5.20192266917268e-12
8.86297430112743e-13
-6.37850640608725e-12
8.31079596778711e-14
-7.18487505299617e-12
-1.15559136412605e-12
-6.49881714727114e-12
-2.6074344081832e-12
-1.95333785963361e-12
-3.53361326441098e-12
8.80737064267145e-12
-2.43667014086164e-12
2.30051312290914e-11
2.12373114629323e-11
2.11316478748123e-12
1.87547963318575e-11
3.17223898010067e-12
2.19185533613683e-11
2.48444640561081e-12
9.83614958715902e-12
1.25960987832882e-12
-4.25909374809018e-13
1.4534325868858e-13
-5.27966069042288e-12
-6.25584422779649e-13
-6.45460530343354e-12
-1.07451115132232e-12
-6.03198456870042e-12
-1.28265958065621e-12
-5.1106861886467e-12
-1.33386958624307e-12
-4.16035758678964e-12
-1.29143697444526e-12
-3.32815052456657e-12
-1.19885144793434e-12
-2.64399270711596e-12
-1.08358127829477e-12
-2.09583892359752e-12
-9.62036489556555e-13
-1.6613930744973e-12
-8.43316187103723e-13
-1.3181072100673e-12
-7.31980360112406e-13
-1.04650676724211e-12
-6.29860857721327e-13
-8.30929858783395e-13
-5.37241014929254e-13
-6.59200893261607e-13
-4.53567233805974e-13
-5.22088449492974e-13
-3.77870629939043e-13
-4.12636014093618e-13
-3.09006741055793e-13
-3.25684090808434e-13
-2.45777243310841e-13
-2.57393436320501e-13
-1.8699993272613e-13
-2.0496413512182e-13
-1.3152136684396e-13
-1.66375878004107e-13
-7.82330616195308e-14
-1.40238706118097e-13
-2.60555840632661e-14
-1.25668904403193e-13
2.60709779301858e-14
-1.22235978801681e-13
7.9199450851205e-14
-1.29921277734515e-13
1.34399772629831e-13
-1.49110522924879e-13
1.92763534939386e-13
-1.80663584872897e-13
2.55415429755365e-13
-2.25923649018433e-13
3.23505774418793e-13
-2.86873905216189e-13
3.98194485114517e-13
-3.6628200885133e-13
4.80581916343803e-13
-4.67931002449463e-13
5.7157764924372e-13
-5.96975620213e-13
6.7167122688264e-13
-7.60348094516862e-13
7.80488976612206e-13
-9.67257844614954e-13
8.96095708267145e-13
-1.22981631920763e-12
1.01380686864821e-12
-1.56359848904663e-12
1.12435030890068e-12
-1.98800941971022e-12
1.21105941678448e-12
-2.52558161717138e-12
1.24607913094167e-12
-3.19876498790235e-12
1.1852728502365e-12
-4.02037792752953e-12
9.64365006804555e-13
-4.96427406834153e-12
4.98344973863984e-13
-5.89566415227923e-12
-2.94322821740752e-13
-6.37522937848936e-12
-1.43196574713716e-12
-5.34374761530634e-12
-2.67110073731911e-12
-6.95784879477844e-13
-3.34144785142479e-12
9.49704885785704e-12
-2.20431338456746e-12
2.18857855935121e-11
1.90430634640162e-11
1.76420571505364e-12
1.7009323235377e-11
2.71512777931899e-12
2.09891856880866e-11
2.24631766344581e-12
1.03249252690819e-11
1.2668773425832e-12
5.72207677078769e-13
3.15500021929605e-13
-4.31076270265949e-12
-3.8475803111719e-13
-5.73778013438545e-12
-8.2461078390088e-13
-5.57629896911176e-12
-1.05562493758223e-12
-4.86440147928328e-12
-1.14190845231251e-12
-4.05924942558889e-12
-1.13599195752585e-12
-3.31961856595823e-12
-1.07641756480081e-12
-2.68945387730935e-12
-9.8896043017932e-13
-2.16949578058446e-12
-8.89955389204465e-13
-1.74689751944441e-12
-7.89117757788085e-13
-1.4057348312547e-12
-6.91825812816346e-13
-1.13087063059894e-12
-6.0071517611031e-13
-9.09384300632628e-13
-5.16752054173294e-13
-7.30767211426948e-13
-4.39943838145564e-13
-5.86745309382354e-13
-3.69755685336318e-13
-4.70901024226087e-13
-3.05379496272391e-13
-3.78348388820104e-13
-2.45876356823992e-13
-3.0537686677949e-13
-1.90264103201216e-13
-2.49230231597027e-13
-1.37550837621783e-13
-2.0789758353358e-13
-8.67587509195359e-14
-1.79975860755342e-13
-3.69226743980139e-14
-1.64568840029238e-13
1.29073731445682e-14
-1.61232454251658e-13
6.36774597832971e-14
-1.69944029053941e-13
1.16343524074454e-13
-1.91101218995819e-13
1.71862599503786e-13
-2.25565598272803e-13
2.31201783094745e-13
-2.74690849623757e-13
2.9530974087612e-13
-3.40443115795702e-13
3.65084939614898e-13
-4.25539250600669e-13
4.41294551182733e-13
-5.33632004346505e-13
5.24414494236479e-13
-6.69584420613801e-13
6.14370367157354e-13
-8.39778342402621e-13
7.10105131265365e-13
-1.0524402866685e-12
8.08886047773893e-13
-1.31800639880703e-12
9.0520641521522e-13
-1.64927713898973e-12
9.89180759836127e-13
-2.06128066335901e-12
1.04422320541014e-12
-2.56985076210049e-12
1.04418894443923e-12
-3.18788528492584e-12
9.49952771286134e-13
-3.91523221309374e-12
7.08148687118983e-13
-4.71151557393607e-12
2.53757212991568e-13
-5.43028641339348e-12
-4.64843750270184e-13
-5.64555645649029e-12
-1.4354915473347e-12
-4.36168976665563e-12
-2.42536822241425e-12
3.0632188004566e-13
-2.87614818758762e-12
9.96076815857064e-12
-1.85156660925893e-12
2.08729362384053e-11
1.71975888296662e-11
1.40674815530107e-12
1.56164329320635e-11
2.19908134717524e-12
2.0211877660375e-11
1.90116374849621e-12
1.06364000790949e-11
1.15159408797051e-12
1.33430935768388e-12
3.75430714140948e-13
-3.52298832274038e-12
-2.29684037468875e-13
-5.12183795911858e-12
-6.34560237358505e-13
-5.16120966743968e-12
-8.66683626563532e-13
-4.62254030117348e-12
-9.71729871078649e-13
-3.94484601084917e-12
-9.90986285806608e-13
-3.29133058599005e-12
-9.5692637318421e-13
-2.71477743606671e-12
-8.92537828084697e-13
-2.22542813861667e-12
-8.1319889787048e-13
-1.81805240225473e-12
-7.28589890838594e-13
-1.48242732247525e-12
-6.44466753354667e-13
-1.20733818389334e-12
-5.63969497959927e-13
-9.82479336898523e-13
-4.88566109658871e-13
-7.99010832787227e-13
-4.18706709724362e-13
-6.4967474175351e-13
-3.54217058086768e-13
-5.28675028146715e-13
-2.94585373081498e-13
-4.3146282651078e-13
-2.3910580904688e-13
-3.54519338280851e-13
-1.86984332966973e-13
-2.95177770594498e-13
-1.37383679211656e-13
-2.51469075155595e-13
-8.94550838631846e-14
-2.22003001408262e-13
-4.23498758753438e-14
-2.05883348912175e-13
4.77599258431851e-15
-2.02662951962642e-13
5.27616419429443e-14
-2.12314867129229e-13
1.02447167902857e-13
-2.35238747539545e-13
1.54661249995877e-13
-2.7228505932476e-13
2.102156679305e-13
-3.24792538605242e-13
2.69875839912682e-13
-3.94680862886744e-13
3.34304154370759e-13
-4.84564477788875e-13
4.03971082633364e-13
-5.97904692778179e-13
4.78992481675729e-13
-7.39209659753603e-13
5.58850319869843e-13
-9.14228631128372e-13
6.41995651781314e-13
-1.1301561872578e-12
7.25190135018545e-13
-1.39573952952877e-12
8.02559504009566e-13
-1.7211444828955e-12
8.6425925668313e-13
-2.11742997645797e-12
8.9468756254027e-13
-2.59467706339132e-12
8.70528789380252e-13
-3.15807592154348e-12
7.58831821733623e-13
-3.79785012574848e-12
5.17682571336497e-13
-4.46467154911598e-12
1.00815855936496e-13
-5.00773635027395e-12
-5.18959391295451e-13
-5.02007207317632e-12
-1.30957623777301e-12
-3.56512994551526e-12
-2.06462604127856e-12
1.06795216263209e-12
-2.34283301342372e-12
1.02461534664323e-11
-1.48388338250557e-12
2.00202108922525e-11
1.57165032834938e-11
1.08927396964532e-12
1.45358138435533e-11
1.72478281766364e-12
1.95846036755613e-11
1.55149998899462e-12
1.08165445501758e-11
9.94946713912583e-13
1.89704292590444e-12
3.79656487648904e-13
-2.90215064368992e-12
-1.2762533932809e-13
-4.6095886514942e-12
-4.86820848162537e-13
-4.79752014780416e-12
-7.07791997564097e-13
-4.39745015220365e-12
-8.20804158331659e-13
-3.82802241291399e-12
-8.56874789248465e-13
-3.25171958637553e-12
-8.42348836833052e-13
-2.72601645016817e-12
-7.9699228537476e-13
-2.26774487378902e-12
-7.34721601003203e-13
-1.8775281707274e-12
-6.64761594599105e-13
-1.54983633653234e-12
-5.92911290207754e-13
-1.2768774962597e-12
-5.22577413339122e-13
-1.05073677457436e-12
-4.55571945098533e-13
-8.64165082944203e-13
-3.92673968231551e-13
-7.10935179018485e-13
-3.34006536149767e-13
-5.85904443092797e-13
-2.79311216100838e-13
-4.84904691347263e-13
-2.28089621386623e-13
-4.04655483210071e-13
-1.79720432092768e-13
-3.42612793941694e-13
-1.33510932545926e-13
-2.96879083817549e-13
-8.87385288768535e-14
-2.66094282300884e-13
-4.4668567582311e-14
-2.49374829095358e-13
-5.62050115029879e-16
-2.46278795869924e-13
4.43129398965442e-14
-2.56772987844769e-13
9.06865245223674e-14
-2.81256496402497e-13
1.3926090726685e-13
-3.20552485082792e-13
1.90703802439309e-13
-3.75966349552876e-13
2.45607793254657e-13
-4.49343039006281e-13
3.04424206616715e-13
-5.43156845973385e-13
3.67377518583637e-13
-6.60641633068742e-13
4.3428696439122e-13
-8.05901518174088e-13
5.04307047191237e-13
-9.84021504359249e-13
5.75548881707632e-13
-1.20115299705808e-12
6.44514639216743e-13
-1.4644353114272e-12
7.05294166343022e-13
-1.78162293522122e-12
7.48518316726426e-13
-2.16031908514096e-12
7.60079901612095e-13
-2.60587032858847e-12
7.19939644180564e-13
-3.1175432760851e-12
6.01397535236948e-13
-3.67891200919916e-12
3.73023111251989e-13
-4.23592931817819e-12
4.26733548365536e-15
-4.63867025431493e-12
-5.14114161067544e-13
-4.5014193889749e-12
-1.13917049157516e-12
-2.93968219142339e-12
-1.69641437912738e-12
1.62602914513933e-12
-1.84829995491058e-12
1.03992423236233e-11
-1.15404746575072e-12
1.93265679444939e-11
1.45616995100017e-11
8.28530315508236e-13
1.3711302007056e-11
1.33016808650609e-12
1.90853794006876e-11
1.24280595611581e-12
1.09052495923101e-11
8.38268671234738e-13
2.30254245474133e-12
3.59326924007894e-13
-2.42262987745875e-12
-5.79126453080197e-14
-4.19216681932013e-12
-3.69240437813458e-13
-4.4863560315862e-12
-5.72722681897091e-13
-4.19441777336206e-12
-6.86671212193002e-13
-3.71476743894677e-12
-7.33419107312952e-13
-3.20588965405927e-12
-7.33662480340359e-13
-2.72690889669317e-12
-7.03915525735311e-13
-2.29884685461087e-12
-6.56393719672885e-13
-1.92662673849116e-12
-5.99598441612965e-13
-1.60843153214857e-12
-5.39130966483996e-13
-1.33936666368733e-12
-4.78481812974375e-13
-1.11362562107025e-12
-4.19663138319593e-13
-9.2543269490764e-13
-3.63690409724204e-13
-7.69556526829852e-13
-3.10921814857433e-13
-6.4150784028358e-13
-2.61306301158152e-13
-5.37526918332474e-13
-2.14527752242605e-13
-4.54597211417638e-13
-1.70122313508181e-13
-3.90322405857491e-13
-1.27531223133542e-13
-3.42899055960475e-13
-8.61543681106127e-14
-3.11009712990261e-13
-4.53642900185841e-14
-2.93798326426166e-13
-4.52752232036918e-15
-2.90830060453618e-13
3.69859435899283e-14
-3.02068372700422e-13
7.9793981226677e-14
-3.27902021037221e-13
1.24479906554177e-13
-3.69120180868568e-13
1.71577860217152e-13
-4.26979810118987e-13
2.21522834696154e-13
-5.03227725844081e-13
2.7458910685564e-13
-6.00178283812707e-13
3.30791654055804e-13
-7.20806271411304e-13
3.89715309504969e-13
-8.6878620575246e-13
4.50285148365329e-13
-1.04854428136006e-12
5.1041343562956e-13
-1.26521947572098e-12
5.66528048190367e-13
-1.52446856652201e-12
6.12928978155565e-13
-1.8319196326131e-12