/*--------------------------------*- C++ -*----------------------------------*\
  =========                 |
  \\      /  F ield         | OpenFOAM: The Open Source CFD Toolbox
   \\    /   O peration     | Website:  https://openfoam.org
    \\  /    A nd           | Version:  10
     \\/     M anipulation  |
\*---------------------------------------------------------------------------*/
FoamFile
{
    format      ascii;
    class       volScalarField;
    location    "8.2";
    object      rho;
}
// * * * * * * * * * * * * * * * * * * * * * * * * * * * * * * * * * * * * * //

dimensions      [1 -3 0 0 0 0 0];

internalField   nonuniform List<scalar> 
2500
(
1.14577503268804
1.14578464309329
1.14581933491362
1.14584742595154
1.1458661778793
1.1458778494007
1.14588486746838
1.14588898007122
1.14589132062837
1.14589260483222
1.14589328856749
1.14589363766548
1.14589380921269
1.14589389245908
1.14589393216667
1.14589395196131
1.14589396081952
1.14589396616011
1.1458939701346
1.145893972587
1.14589397445446
1.14589397595758
1.1458939771439
1.14589397787409
1.14589397859477
1.14589397914658
1.14589397931514
1.14589397928928
1.14589397902195
1.14589397845803
1.14589397747614
1.14589397559297
1.14589397284945
1.14589396797608
1.14589395851361
1.14589393896371
1.14589389771082
1.14589381168469
1.14589363198686
1.14589327419411
1.14589258192067
1.14589128758916
1.1458889489322
1.1458848560879
1.14587787310844
1.14586625228788
1.14584749283918
1.14581924562942
1.1457843868596
1.14577536773125
1.14861953996926
1.14869236707501
1.14879475951781
1.14887493329283
1.14892904171703
1.14896336559099
1.14898446725861
1.14899711958883
1.14900449300031
1.14900864814599
1.14901090769817
1.14901208987564
1.14901268489005
1.14901297412865
1.14901311011179
1.14901317252111
1.14901320005908
1.14901321263849
1.14901321890196
1.14901322209311
1.14901322401156
1.14901322536154
1.14901322636558
1.14901322703675
1.14901322761916
1.14901322806959
1.14901322827493
1.14901322831756
1.14901322816432
1.14901322765854
1.1490132264407
1.14901322362595
1.14901321757205
1.1490132041455
1.14901317421972
1.14901310791358
1.14901296421843
1.14901266211458
1.14901204652188
1.14901083873579
1.14900855239556
1.14900437731971
1.14899701183889
1.14898441588012
1.14896342317135
1.14892920997544
1.14887501763274
1.1487943094183
1.14869126774974
1.14862109445747
1.15161461416923
1.15175381869055
1.15190593129724
1.15202045362545
1.15209685595206
1.15214506359872
1.15217461379173
1.15219230836221
1.15220262185376
1.15220844337098
1.15221161524527
1.15221327949528
1.15221411981456
1.15221452865681
1.152214720541
1.15221480769857
1.15221484589472
1.15221486249712
1.15221486989869
1.1522148732899
1.15221487505114
1.15221487615607
1.15221487693422
1.15221487746327
1.15221487789002
1.15221487822401
1.15221487841184
1.1522148784951
1.15221487843697
1.15221487801564
1.15221487675506
1.1522148735179
1.15221486572611
1.15221484758491
1.15221480617455
1.15221471337005
1.15221451129325
1.15221408578895
1.1522132204436
1.15221152445717
1.15220831906235
1.15220247378132
1.15219216922815
1.15217454085345
1.15214511394777
1.15209699277128
1.1520203395804
1.15190481320432
1.15175125045046
1.15161469497834
1.15442294810876
1.15460416970659
1.15477356817934
1.15489598644573
1.15497558822902
1.15502472594551
1.15505424978801
1.15507161741802
1.15508158687053
1.15508714180708
1.15509013468332
1.15509168992392
1.15509246855306
1.15509284427364
1.15509301913517
1.15509309773897
1.15509313182539
1.15509314629846
1.15509315245876
1.15509315512686
1.15509315641063
1.15509315717187
1.15509315770058
1.15509315806352
1.15509315834437
1.15509315856996
1.15509315872026
1.15509315881842
1.15509315885386
1.15509315863376
1.15509315773003
1.15509315515899
1.15509314855121
1.15509313275901
1.15509309616672
1.15509301311031
1.15509283025687
1.1550924412985
1.15509164261356
1.15509006095625
1.15508703851988
1.15508145971961
1.15507148961543
1.15505416334986
1.15502471380699
1.15497556544265
1.15489551245834
1.1547716694867
1.15459996069293
1.15441962969739
1.15680965849552
1.15700008342545
1.15716015879465
1.15727136514867
1.15734170748683
1.1573841011908
1.15740902828099
1.15742341950191
1.15743155252294
1.15743602703172
1.15743841296948
1.15743964242328
1.15744025369507
1.15744054686801
1.15744068252124
1.15744074308898
1.1574407691457
1.15744078003035
1.15744078451141
1.15744078635562
1.15744078717785
1.15744078763801
1.15744078795677
1.15744078817619
1.15744078833993
1.1574407884769
1.15744078858417
1.15744078867647
1.15744078874783
1.15744078868747
1.15744078816233
1.15744078639686
1.15744078156146
1.15744076976172
1.15744074213599
1.15744067882357
1.1574405382457
1.15744023680217
1.15743961278474
1.15743836596194
1.15743595953592
1.15743146657407
1.15742332783466
1.15740895408921
1.15738405040777
1.15734156138799
1.15727063907383
1.15715776689904
1.15699471069668
1.15680297418628
1.15866956780019
1.15884181076106
1.15897550390007
1.159065012995
1.15912007858033
1.1591524667824
1.15917109961149
1.1591816583651
1.15918753609663
1.15919073181664
1.15919242038154
1.15919328444103
1.15919371176044
1.15919391583378
1.15919400989706
1.15919405170548
1.15919406957927
1.15919407694645
1.15919407989308
1.15919408104308
1.15919408150956
1.15919408174912
1.15919408191609
1.15919408203123
1.15919408211304
1.1591940821866
1.15919408225612
1.15919408233116
1.15919408240241
1.15919408241897
1.15919408217641
1.15919408111386
1.15919407793209
1.15919407000945
1.15919405131012
1.15919400812254
1.15919391159808
1.1591937033381
1.15919326943337
1.15919239610411
1.15919069606815
1.15918748913064
1.1591816059352
1.15917105150878
1.15915241211207
1.15911989087416
1.15906422805895
1.1589730498312
1.15883611773858
1.15866086200277
1.16001000979713
1.16014859668673
1.16024951085736
1.16031479476941
1.16035387820276
1.1603763190121
1.16038895381037
1.16039598423729
1.16039984163713
1.16040191609371
1.16040300346152
1.16040355672069
1.16040382925122
1.1604039590338
1.16040401871131
1.16040404515596
1.16040405640343
1.1604040609835
1.160404062765
1.1604040634206
1.16040406365436
1.16040406375535
1.16040406382647
1.16040406387624
1.16040406390774
1.16040406394122
1.16040406398245
1.16040406403736
1.16040406409989
1.16040406414093
1.16040406405935
1.16040406349166
1.16040406157313
1.16040405668851
1.16040404507473
1.1604040180784
1.16040395743922
1.16040382600275
1.16040355080024
1.16040299364375
1.16040190123093
1.16039982161136
1.16039596149263
1.16038893155742
1.16037628140485
1.16035371394318
1.1603141095133
1.16024735634713
1.16014338809093
1.16000098967681
1.16090968378683
1.16101087398061
1.16108073174955
1.16112450925036
1.16115003718693
1.16116435416825
1.16117224665251
1.1611765608382
1.16117889524157
1.16118013794629
1.16118078475224
1.16118111232953
1.16118127323169
1.16118134972477
1.16118138485285
1.1611814003883
1.1611814069669
1.16118140961482
1.16118141061529
1.16118141095926
1.16118141106183
1.16118141108901
1.16118141110788
1.16118141112274
1.16118141112753
1.16118141113868
1.161181411161
1.16118141119765
1.16118141124573
1.1611814112858
1.1611814112763
1.1611814110062
1.16118140993789
1.16118140713696
1.16118140042527
1.16118138473806
1.16118134937172
1.16118127246698
1.1611811108604
1.1611807821931
1.16118013391065
1.16117888980775
1.1611765553594
1.16117224232169
1.16116433770767
1.16114992435152
1.16112399879313
1.16107906438704
1.1610066506778
1.16090169172707
1.16147536629531
1.16154333572694
1.1615881632481
1.16161543817608
1.16163094715676
1.16163944919556
1.16164404054452
1.16164650701432
1.16164782381287
1.16164851813529
1.16164887725277
1.16164905844668
1.16164914727454
1.16164918946946
1.161649208838
1.16164921739338
1.16164922100197
1.1616492224377
1.16164922296402
1.16164922312949
1.16164922316204
1.16164922315832
1.16164922315656
1.16164922315606
1.16164922315207
1.16164922315336
1.16164922316462
1.16164922318695
1.16164922322022
1.16164922325342
1.16164922326655
1.16164922315045
1.1616492225979
1.16164922109077
1.16164921744632
1.16164920888805
1.16164918954509
1.16164914739884
1.16164905861962
1.16164887745834
1.16164851838271
1.16164782440861
1.16164650908489
1.16164404520714
1.16163944822916
1.16163088442443
1.16161510441551
1.16158700312796
1.16154024449225
1.16146908792941
1.16181029480992
1.16185271983555
1.16187960792342
1.16189552549124
1.16190436149365
1.16190910000508
1.16191160809266
1.16191293268781
1.16191363067356
1.16191399538041
1.16191418294769
1.16191427729785
1.16191432349673
1.16191434544039
1.16191435551516
1.16191435996235
1.16191436183115
1.16191436256579
1.16191436282589
1.16191436289442
1.16191436289746
1.16191436288879
1.16191436288125
1.16191436287564
1.16191436287043
1.16191436286967
1.16191436287468
1.16191436288765
1.16191436290878
1.16191436293247
1.16191436294797
1.16191436290407
1.16191436263634
1.16191436187005
1.16191435999701
1.16191435558067
1.16191434558424
1.16191432378318
1.16191427780028
1.16191418375637
1.16191399663863
1.16191363277217
1.16191293666763
1.16191161533565
1.16190910672601
1.16190433430489
1.16189533096852
1.16187887195184
1.16185064922614
1.16180582561429
1.1619978799343
1.16202268103197
1.16203785808985
1.16204661685568
1.16205136902433
1.16205386405973
1.16205515911232
1.16205583172145
1.1620561816297
1.16205636287115
1.16205645560099
1.16205650213155
1.16205652490243
1.16205653572377
1.16205654069564
1.16205654288967
1.16205654380825
1.16205654416475
1.16205654428447
1.16205654430935
1.16205654430533
1.16205654429707
1.16205654428983
1.16205654428412
1.16205654427997
1.16205654427859
1.16205654428068
1.16205654428804
1.16205654430052
1.16205654431563
1.16205654432788
1.16205654431399
1.16205654419107
1.16205654382079
1.16205654290439
1.162056540736
1.16205653582496
1.16205652511541
1.16205650252055
1.16205645625276
1.16205636393069
1.1620561834489
1.16205583517877
1.16205516561842
1.16205387260764
1.16205136176731
1.16204651509775
1.16203742793261
1.16202139829248
1.16199495451418
1.16209766331726
1.16211132847763
1.16211943543863
1.16212400453692
1.16212643033906
1.16212767827974
1.16212831381193
1.16212863849356
1.16212880527483
1.16212889093121
1.16212893454595
1.162128956388
1.16212896707638
1.16212897216087
1.16212897449956
1.16212897553156
1.16212897596201
1.16212897612686
1.16212897617843
1.16212897618577
1.16212897618151
1.16212897617552
1.1621289761703
1.16212897616614
1.16212897616336
1.16212897616215
1.162128976163
1.162128976167
1.16212897617392
1.16212897618272
1.1621289761904
1.1621289761871
1.16212897613372
1.16212897596301
1.16212897553416
1.16212897451621
1.1621289722112
1.1621289671896
1.16212895660232
1.16212893491694
1.16212889156222
1.16212880642583
1.16212864082046
1.16212831850234
1.16212768562366
1.16212643176239
1.16212395682026
1.1621192019633
1.16211058732695
1.16209588351858
1.16214825425183
1.16215538840901
1.16215950584402
1.16216177594022
1.16216295665138
1.16216355230143
1.1621638500777
1.16216399975376
1.16216407567813
1.16216411434754
1.16216413394841
1.16216414374889
1.16216414854656
1.16216415083202
1.16216415188477
1.16216415234938
1.1621641525424
1.16216415261514
1.16216415263595
1.16216415263737
1.16216415263445
1.16216415263069
1.16216415262745
1.16216415262487
1.1621641526232
1.1621641526224
1.16216415262274
1.1621641526248
1.16216415262842
1.16216415263319
1.16216415263764
1.16216415263747
1.16216415261518
1.16216415253971
1.16216415234696
1.16216415188816
1.1621641508502
1.16216414859301
1.16216414384157
1.16216413411581
1.16216411465095
1.16216407628517
1.16216400110275
1.16216385303092
1.16216355752457
1.16216296047833
1.16216175615033
1.16215938744849
1.16215498626363
1.16214723953004
1.16217277768554
1.16217632252641
1.16217831896667
1.16217939743068
1.16217994756726
1.16218021995232
1.16218035369313
1.16218041984799
1.16218045298797
1.16218046972767
1.1621804781762
1.16218048239515
1.162180484462
1.1621804854483
1.16218048590337
1.16218048610425
1.16218048618735
1.16218048621801
1.16218048622603
1.16218048622592
1.16218048622408
1.16218048622195
1.16218048622013
1.16218048621868
1.16218048621776
1.16218048621729
1.16218048621742
1.16218048621843
1.16218048622022
1.16218048622265
1.16218048622503
1.16218048622547
1.1621804862165
1.16218048618435
1.16218048610084
1.1621804859016
1.16218048545153
1.16218048447524
1.16218048242504
1.16218047823487
1.1621804698471
1.16218045326561
1.16218042055042
1.1621803553785
1.16218022323504
1.16217995109361
1.16217939045856
1.16217826261665
1.16217611644077
1.16217223196988
1.16218417197637
1.1621858548491
1.16218678226634
1.16218727386255
1.16218752008245
1.16218763982831
1.16218769760576
1.16218772573709
1.16218773965441
1.1621877466267
1.16218775013099
1.16218775187918
1.16218775273651
1.16218775314644
1.16218775333593
1.16218775341959
1.16218775345404
1.16218775346645
1.16218775346938
1.16218775346903
1.16218775346799
1.16218775346686
1.16218775346591
1.16218775346515
1.16218775346468
1.16218775346443
1.16218775346447
1.16218775346494
1.16218775346578
1.16218775346694
1.16218775346812
1.1621877534685
1.16218775346501
1.16218775345176
1.16218775341678
1.16218775333315
1.16218775314462
1.16218775273695
1.16218775188354
1.16218775014342
1.16218774666225
1.16218773976523
1.16218772607287
1.16218769849588
1.16218764170939
1.16218752256067
1.16218727203814
1.16218675701235
1.1621857546195
1.16218389363918
1.16218925511013
1.16219002100324
1.16219043502213
1.16219065067707
1.16219075684722
1.16219080760802
1.16219083168999
1.16219084323433
1.1621908488749
1.16219085167755
1.16219085308046
1.16219085377977
1.16219085412316
1.16219085428771
1.16219085436392
1.16219085439757
1.16219085441135
1.16219085441618
1.16219085441719
1.16219085441692
1.16219085441637
1.16219085441581
1.16219085441534
1.16219085441496
1.16219085441472
1.16219085441459
1.1621908544146
1.1621908544148
1.16219085441518
1.1621908544157
1.16219085441625
1.16219085441647
1.16219085441514
1.16219085440984
1.16219085439563
1.16219085436162
1.16219085428512
1.16219085412031
1.16219085377659
1.1621908530779
1.16219085168209
1.16219084891259
1.16219084338367
1.16219083213097
1.1621908086089
1.16219075835252
1.16219065057271
1.16219042434396
1.16218997454932
1.16218911986256
1.16219143244437
1.16219176759241
1.16219194569454
1.16219203698131
1.16219208120471
1.16219210200821
1.16219211171844
1.16219211630282
1.16219211851511
1.16219211960531
1.16219212014884
1.16219212041959
1.16219212055273
1.16219212061667
1.16219212064634
1.16219212065943
1.16219212066476
1.16219212066657
1.16219212066689
1.16219212066672
1.16219212066645
1.16219212066618
1.16219212066595
1.16219212066576
1.16219212066565
1.16219212066558
1.16219212066557
1.16219212066565
1.1621921206658
1.16219212066602
1.16219212066626
1.16219212066637
1.16219212066587
1.1621921206638
1.1621921206582
1.16219212064476
1.16219212061463
1.16219212054996
1.16219212041568
1.16219212014372
1.16219211960155
1.162192118525
1.16219211636514
1.16219211192532
1.16219210250867
1.1621920820326
1.16219203727241
1.16219194143237
1.16219174700125
1.16219136959166
1.16219232432096
1.16219246570586
1.16219253971169
1.1621925770857
1.16219259492104
1.16219260318327
1.1621926069799
1.1621926087458
1.16219260958751
1.16219260999886
1.16219261020312
1.1621926103048
1.16219261035486
1.16219261037895
1.16219261039014
1.16219261039507
1.16219261039705
1.1621926103977
1.16219261039778
1.16219261039768
1.16219261039755
1.16219261039742
1.16219261039731
1.16219261039722
1.16219261039716
1.16219261039712
1.1621926103971
1.16219261039712
1.16219261039718
1.16219261039726
1.16219261039736
1.1621926103974
1.16219261039722
1.16219261039643
1.16219261039428
1.16219261038912
1.16219261037758
1.16219261035291
1.16219261030192
1.16219261019908
1.1621926099946
1.16219260958853
1.1621926087703
1.1621926070724
1.16219260342039
1.16219259534304
1.16219257735771
1.16219253810776
1.16219245694933
1.16219229629151
1.16219266832681
1.16219272596267
1.16219275573006
1.16219277056019
1.16219277753898
1.16219278072538
1.16219278216781
1.16219278282901
1.1621927831403
1.16219278329115
1.16219278336572
1.16219278340281
1.16219278342108
1.16219278342988
1.16219278343397
1.16219278343575
1.16219278343645
1.16219278343666
1.16219278343667
1.16219278343661
1.16219278343654
1.16219278343647
1.16219278343642
1.16219278343637
1.16219278343633
1.1621927834363
1.16219278343629
1.16219278343629
1.1621927834363
1.16219278343632
1.16219278343635
1.16219278343637
1.1621927834363
1.16219278343601
1.1621927834352
1.16219278343328
1.16219278342898
1.16219278341983
1.16219278340099
1.16219278336316
1.16219278328815
1.16219278313924
1.16219278283802
1.16219278220737
1.16219278083245
1.16219277774108
1.16219277073444
1.16219275516315
1.16219272238021
1.16219265629633
1.16219278681082
1.16219280956329
1.16219282117575
1.16219282688962
1.16219282954379
1.1621928307392
1.16219283127262
1.16219283151367
1.16219283162574
1.16219283167956
1.16219283170603
1.16219283171916
1.16219283172562
1.16219283172873
1.16219283173015
1.16219283173076
1.16219283173099
1.16219283173104
1.16219283173102
1.16219283173098
1.16219283173094
1.1621928317309
1.16219283173086
1.16219283173083
1.16219283173081
1.16219283173078
1.16219283173077
1.16219283173076
1.16219283173075
1.16219283173075
1.16219283173076
1.16219283173076
1.16219283173073
1.16219283173063
1.16219283173034
1.16219283172964
1.1621928317281
1.1621928317248
1.16219283171804
1.16219283170449
1.16219283167771
1.16219283162456
1.16219283151665
1.16219283128877
1.1621928307854
1.16219282963548
1.16219282698422
1.16219282098902
1.16219280814969
1.16219278182806
1.16219281543996
1.16219282415447
1.16219282855553
1.16219283069656
1.1621928316792
1.16219283211609
1.16219283230836
1.16219283239401
1.1621928324333
1.16219283245197
1.16219283246108
1.16219283246557
1.16219283246776
1.1621928324688
1.16219283246926
1.16219283246944
1.16219283246949
1.16219283246949
1.16219283246946
1.16219283246943
1.1621928324694
1.16219283246937
1.16219283246935
1.16219283246932
1.1621928324693
1.16219283246928
1.16219283246926
1.16219283246925
1.16219283246924
1.16219283246923
1.16219283246923
1.16219283246922
1.16219283246921
1.16219283246917
1.16219283246908
1.16219283246884
1.16219283246831
1.16219283246717
1.16219283246482
1.16219283246013
1.16219283245084
1.16219283243238
1.16219283239475
1.16219283231456
1.16219283213512
1.16219283171876
1.16219283074283
1.16219282849904
1.16219282361519
1.16219281344373
1.1621928093478
1.16219281259186
1.16219281421474
1.16219281499601
1.16219281535058
1.16219281550628
1.16219281557386
1.16219281560351
1.1621928156169
1.16219281562316
1.16219281562617
1.16219281562762
1.16219281562831
1.16219281562862
1.16219281562873
1.16219281562877
1.16219281562876
1.16219281562873
1.1621928156287
1.16219281562868
1.16219281562865
1.16219281562863
1.1621928156286
1.16219281562858
1.16219281562856
1.16219281562854
1.16219281562853
1.16219281562851
1.1621928156285
1.16219281562849
1.16219281562848
1.16219281562847
1.16219281562847
1.16219281562846
1.16219281562843
1.16219281562836
1.16219281562819
1.16219281562783
1.16219281562706
1.1621928156255
1.1621928156224
1.1621928156162
1.16219281560345
1.16219281557598
1.16219281551366
1.16219281536678
1.16219281501687
1.16219281419945
1.16219281239241
1.16219280857247
1.16219279022006
1.16219279139561
1.16219279197857
1.16219279225644
1.16219279238121
1.16219279243532
1.16219279245846
1.16219279246842
1.16219279247281
1.16219279247481
1.16219279247572
1.16219279247614
1.16219279247631
1.16219279247637
1.16219279247637
1.16219279247635
1.16219279247632
1.16219279247629
1.16219279247626
1.16219279247623
1.16219279247621
1.16219279247618
1.16219279247616
1.16219279247614
1.16219279247612
1.1621927924761
1.16219279247609
1.16219279247607
1.16219279247606
1.16219279247605
1.16219279247604
1.16219279247603
1.16219279247603
1.16219279247603
1.16219279247602
1.16219279247601
1.16219279247597
1.16219279247588
1.16219279247566
1.16219279247519
1.16219279247422
1.16219279247224
1.16219279246808
1.16219279245896
1.16219279243789
1.1621927923874
1.16219279226513
1.16219279197498
1.16219279132382
1.16219278992742
1.16219276632961
1.16219276674484
1.16219276694897
1.16219276704529
1.16219276708807
1.16219276710637
1.16219276711404
1.16219276711725
1.1621927671186
1.16219276711916
1.16219276711938
1.16219276711945
1.16219276711945
1.16219276711943
1.16219276711939
1.16219276711935
1.16219276711932
1.16219276711928
1.16219276711925
1.16219276711923
1.1621927671192
1.16219276711918
1.16219276711916
1.16219276711914
1.16219276711912
1.1621927671191
1.16219276711909
1.16219276711907
1.16219276711906
1.16219276711905
1.16219276711904
1.16219276711903
1.16219276711903
1.16219276711903
1.16219276711903
1.16219276711904
1.16219276711905
1.16219276711905
1.16219276711901
1.16219276711891
1.16219276711865
1.16219276711808
1.16219276711681
1.16219276711391
1.16219276710703
1.16219276709015
1.16219276704854
1.16219276694819
1.16219276671949
1.16219276622195
1.16219274074322
1.16219274088634
1.16219274095596
1.16219274098842
1.16219274100264
1.16219274100861
1.16219274101103
1.16219274101198
1.16219274101233
1.16219274101242
1.16219274101243
1.16219274101239
1.16219274101234
1.16219274101229
1.16219274101224
1.1621927410122
1.16219274101216
1.16219274101213
1.1621927410121
1.16219274101207
1.16219274101205
1.16219274101203
1.16219274101201
1.16219274101199
1.16219274101197
1.16219274101195
1.16219274101194
1.16219274101192
1.16219274101191
1.1621927410119
1.16219274101189
1.16219274101188
1.16219274101188
1.16219274101188
1.16219274101189
1.1621927410119
1.16219274101192
1.16219274101194
1.16219274101197
1.16219274101198
1.16219274101195
1.16219274101184
1.16219274101151
1.16219274101067
1.16219274100853
1.16219274100309
1.16219274098936
1.16219274095562
1.16219274087737
1.16219274070439
1.16219271456744
1.1621927146156
1.16219271463862
1.16219271464914
1.16219271465365
1.16219271465548
1.16219271465617
1.16219271465639
1.16219271465642
1.16219271465638
1.16219271465631
1.16219271465625
1.16219271465619
1.16219271465613
1.16219271465608
1.16219271465604
1.162192714656
1.16219271465597
1.16219271465594
1.16219271465592
1.16219271465589
1.16219271465587
1.16219271465585
1.16219271465583
1.16219271465582
1.1621927146558
1.16219271465578
1.16219271465577
1.16219271465575
1.16219271465574
1.16219271465573
1.16219271465572
1.16219271465572
1.16219271465572
1.16219271465573
1.16219271465574
1.16219271465577
1.1621927146558
1.16219271465584
1.16219271465588
1.16219271465592
1.16219271465594
1.16219271465591
1.16219271465572
1.16219271465513
1.16219271465348
1.16219271464916
1.16219271463823
1.16219271461226
1.16219271455355
1.16219268819152
1.16219268820732
1.16219268821457
1.16219268821773
1.16219268821902
1.1621926882195
1.16219268821964
1.16219268821963
1.16219268821957
1.1621926882195
1.16219268821942
1.16219268821935
1.16219268821929
1.16219268821924
1.16219268821919
1.16219268821915
1.16219268821912
1.16219268821909
1.16219268821906
1.16219268821903
1.16219268821901
1.16219268821899
1.16219268821897
1.16219268821895
1.16219268821893
1.16219268821892
1.1621926882189
1.16219268821889
1.16219268821887
1.16219268821886
1.16219268821885
1.16219268821884
1.16219268821884
1.16219268821884
1.16219268821885
1.16219268821886
1.16219268821888
1.16219268821891
1.16219268821895
1.162192688219
1.16219268821905
1.16219268821911
1.16219268821916
1.16219268821916
1.16219268821905
1.16219268821862
1.16219268821739
1.1621926882141
1.16219268820586
1.16219268818642
1.16219266174911
1.16219266175413
1.16219266175617
1.16219266175692
1.16219266175717
1.16219266175723
1.16219266175721
1.16219266175714
1.16219266175707
1.16219266175699
1.16219266175692
1.16219266175686
1.1621926617568
1.16219266175675
1.16219266175671
1.16219266175667
1.16219266175664
1.16219266175661
1.16219266175658
1.16219266175656
1.16219266175654
1.16219266175652
1.1621926617565
1.16219266175648
1.16219266175646
1.16219266175645
1.16219266175643
1.16219266175641
1.1621926617564
1.16219266175639
1.16219266175638
1.16219266175637
1.16219266175637
1.16219266175637
1.16219266175637
1.16219266175638
1.1621926617564
1.16219266175642
1.16219266175646
1.1621926617565
1.16219266175655
1.16219266175661
1.16219266175667
1.16219266175672
1.16219266175675
1.1621926617567
1.16219266175645
1.16219266175564
1.16219266175328
1.16219266174704
1.16219263528507
1.16219263528658
1.16219263528693
1.16219263528692
1.16219263528686
1.1621926352868
1.16219263528674
1.16219263528667
1.1621926352866
1.16219263528654
1.16219263528648
1.16219263528642
1.16219263528637
1.16219263528633
1.16219263528629
1.16219263528625
1.16219263528622
1.16219263528619
1.16219263528617
1.16219263528615
1.16219263528613
1.16219263528611
1.16219263528609
1.16219263528607
1.16219263528605
1.16219263528603
1.16219263528602
1.162192635286
1.16219263528599
1.16219263528598
1.16219263528597
1.16219263528596
1.16219263528595
1.16219263528595
1.16219263528595
1.16219263528596
1.16219263528597
1.16219263528599
1.16219263528602
1.16219263528606
1.1621926352861
1.16219263528615
1.1621926352862
1.16219263528626
1.16219263528631
1.16219263528636
1.16219263528641
1.16219263528639
1.16219263528593
1.16219263528402
1.16219260881413
1.16219260881452
1.16219260881435
1.16219260881412
1.16219260881397
1.16219260881389
1.16219260881383
1.16219260881377
1.16219260881372
1.16219260881366
1.16219260881361
1.16219260881357
1.16219260881352
1.16219260881348
1.16219260881345
1.16219260881342
1.16219260881339
1.16219260881336
1.16219260881334
1.16219260881332
1.1621926088133
1.16219260881328
1.16219260881326
1.16219260881324
1.16219260881322
1.16219260881321
1.16219260881319
1.16219260881318
1.16219260881316
1.16219260881315
1.16219260881314
1.16219260881313
1.16219260881312
1.16219260881312
1.16219260881312
1.16219260881313
1.16219260881313
1.16219260881315
1.16219260881317
1.1621926088132
1.16219260881323
1.16219260881327
1.16219260881331
1.16219260881335
1.16219260881339
1.16219260881346
1.16219260881358
1.1621926088138
1.16219260881394
1.16219260881342
1.16219258234103
1.16219258234108
1.16219258234076
1.16219258234047
1.16219258234031
1.16219258234023
1.16219258234019
1.16219258234015
1.16219258234011
1.16219258234007
1.16219258234003
1.16219258233999
1.16219258233995
1.16219258233992
1.16219258233989
1.16219258233986
1.16219258233984
1.16219258233981
1.16219258233979
1.16219258233977
1.16219258233975
1.16219258233973
1.16219258233971
1.1621925823397
1.16219258233968
1.16219258233966
1.16219258233965
1.16219258233963
1.16219258233962
1.16219258233961
1.16219258233959
1.16219258233958
1.16219258233958
1.16219258233957
1.16219258233957
1.16219258233957
1.16219258233957
1.16219258233958
1.1621925823396
1.16219258233962
1.16219258233964
1.16219258233966
1.16219258233969
1.16219258233971
1.16219258233974
1.1621925823398
1.16219258233993
1.1621925823402
1.16219258234052
1.16219258234044
1.16219255586727
1.16219255586723
1.16219255586686
1.16219255586657
1.16219255586642
1.16219255586637
1.16219255586634
1.16219255586632
1.16219255586629
1.16219255586626
1.16219255586623
1.1621925558662
1.16219255586618
1.16219255586615
1.16219255586612
1.1621925558661
1.16219255586608
1.16219255586605
1.16219255586603
1.16219255586601
1.162192555866
1.16219255586598
1.16219255586596
1.16219255586594
1.16219255586593
1.16219255586591
1.16219255586589
1.16219255586588
1.16219255586586
1.16219255586585
1.16219255586584
1.16219255586583
1.16219255586582
1.16219255586581
1.16219255586581
1.1621925558658
1.1621925558658
1.16219255586581
1.16219255586582
1.16219255586583
1.16219255586584
1.16219255586585
1.16219255586586
1.16219255586587
1.16219255586588
1.16219255586592
1.16219255586604
1.16219255586631
1.16219255586667
1.16219255586672
1.16219252939331
1.16219252939324
1.16219252939288
1.16219252939261
1.16219252939248
1.16219252939244
1.16219252939243
1.16219252939242
1.16219252939241
1.1621925293924
1.16219252939238
1.16219252939236
1.16219252939234
1.16219252939232
1.16219252939229
1.16219252939227
1.16219252939225
1.16219252939223
1.16219252939222
1.1621925293922
1.16219252939218
1.16219252939216
1.16219252939215
1.16219252939213
1.16219252939211
1.1621925293921
1.16219252939208
1.16219252939206
1.16219252939205
1.16219252939203
1.16219252939202
1.16219252939201
1.162192529392
1.16219252939199
1.16219252939198
1.16219252939198
1.16219252939197
1.16219252939197
1.16219252939197
1.16219252939197
1.16219252939198
1.16219252939197
1.16219252939197
1.16219252939196
1.16219252939196
1.16219252939197
1.16219252939208
1.16219252939234
1.1621925293927
1.16219252939278
1.1621925029193
1.16219250291923
1.16219250291888
1.16219250291863
1.16219250291852
1.1621925029185
1.16219250291851
1.16219250291852
1.16219250291852
1.16219250291852
1.16219250291851
1.1621925029185
1.16219250291848
1.16219250291847
1.16219250291845
1.16219250291843
1.16219250291842
1.1621925029184
1.16219250291838
1.16219250291836
1.16219250291835
1.16219250291833
1.16219250291831
1.1621925029183
1.16219250291828
1.16219250291827
1.16219250291825
1.16219250291823
1.16219250291822
1.1621925029182
1.16219250291819
1.16219250291818
1.16219250291816
1.16219250291815
1.16219250291814
1.16219250291813
1.16219250291813
1.16219250291812
1.16219250291811
1.16219250291811
1.1621925029181
1.16219250291809
1.16219250291807
1.16219250291804
1.16219250291802
1.16219250291802
1.1621925029181
1.16219250291834
1.16219250291869
1.16219250291877
1.16219247644526
1.1621924764452
1.16219247644488
1.16219247644465
1.16219247644456
1.16219247644456
1.16219247644459
1.16219247644461
1.16219247644463
1.16219247644464
1.16219247644464
1.16219247644463
1.16219247644463
1.16219247644461
1.1621924764446
1.16219247644459
1.16219247644457
1.16219247644456
1.16219247644454
1.16219247644453
1.16219247644451
1.1621924764445
1.16219247644448
1.16219247644446
1.16219247644445
1.16219247644443
1.16219247644442
1.1621924764444
1.16219247644438
1.16219247644437
1.16219247644435
1.16219247644434
1.16219247644433
1.16219247644431
1.1621924764443
1.16219247644429
1.16219247644428