/*--------------------------------*- C++ -*----------------------------------*\
  =========                 |
  \\      /  F ield         | OpenFOAM: The Open Source CFD Toolbox
   \\    /   O peration     | Website:  https://openfoam.org
    \\  /    A nd           | Version:  10
     \\/     M anipulation  |
\*---------------------------------------------------------------------------*/
FoamFile
{
    format      ascii;
    class       volScalarField;
    location    "8.2";
    object      T;
}
// * * * * * * * * * * * * * * * * * * * * * * * * * * * * * * * * * * * * * //

dimensions      [0 0 0 1 0 0 0];

internalField   nonuniform List<scalar> 
2500
(
304.298839357394
304.296287016852
304.287073881157
304.279614129823
304.274634641507
304.271535405033
304.269671869438
304.268579844225
304.267958356343
304.267617362954
304.267435811737
304.267343116368
304.267297565779
304.267275461545
304.267264918083
304.267259662064
304.267257309968
304.267255891893
304.267254836556
304.267254185373
304.267253689507
304.267253290382
304.267252975377
304.267252781485
304.267252590119
304.267252443592
304.26725239883
304.267252405689
304.267252476665
304.267252626393
304.267252887104
304.267253387129
304.267254115597
304.267255409599
304.267257922133
304.267263113155
304.267274066928
304.267296909251
304.267344624052
304.267439628121
304.267623446462
304.26796712905
304.268588112401
304.269674891129
304.271529109578
304.274614882754
304.279596367589
304.28709759147
304.296355066849
304.298750375214
303.545249442429
303.526004672754
303.498951305491
303.477771755426
303.46347957414
303.454413975374
303.448840885882
303.445499420307
303.443552144963
303.442454806055
303.44185808075
303.441545880367
303.441388743705
303.441312359088
303.441276447511
303.441259965939
303.441252693483
303.44124937141
303.441247717302
303.441246874554
303.441246367913
303.441246011394
303.441245746235
303.441245568981
303.441245415169
303.441245296208
303.441245241974
303.441245230709
303.44124527117
303.441245404735
303.441245726342
303.441246469674
303.441248068427
303.441251614208
303.441259517245
303.441277027915
303.441314976135
303.441394758311
303.44155732947
303.44187629284
303.442480092684
303.443582695175
303.445527876448
303.448854454838
303.454398767538
303.4634351323
303.477749476628
303.499070216626
303.526295154176
303.544838638693
302.755794017214
302.719202018776
302.679227048641
302.649137714857
302.629067269621
302.616404772045
302.608643472398
302.603996219144
302.601287578013
302.599758689395
302.598925675538
302.598488603539
302.598267916017
302.598160544596
302.598110151407
302.59808726184
302.598077230664
302.598072870498
302.598070926676
302.598070036068
302.598069573524
302.598069283338
302.598069078975
302.59806894003
302.598068827951
302.598068740231
302.598068690896
302.598068669022
302.598068684281
302.598068794924
302.598069125971
302.598069976113
302.598072022404
302.598076786682
302.598087661975
302.598112034545
302.59816510454
302.598276851797
302.598504111761
302.598949518556
302.599791335896
302.60132646589
302.604032760191
302.608662628811
302.616391547426
302.629031330184
302.649167675587
302.679520843064
302.719877038893
302.755772772471
302.019281239259
301.971877620521
301.927580127573
301.895575990171
301.874769121539
301.861926594637
301.854210832826
301.849672160243
301.847066910752
301.845615296353
301.844833204619
301.844426794237
301.844223325844
301.844125144086
301.844079450016
301.844058909616
301.844050002306
301.84404622027
301.844044610486
301.84404391327
301.8440435778
301.844043378872
301.844043240707
301.844043145861
301.844043072463
301.844043013508
301.844042974227
301.844042948567
301.8440429393
301.844042996806
301.844043232955
301.8440439048
301.844045631504
301.844049758239
301.844059320363
301.844081024289
301.844128806761
301.844230447761
301.844439157066
301.84485247061
301.845642287046
301.847100137788
301.84970555814
301.854233421811
301.8619297668
301.87477507698
301.895699892668
301.928076561117
301.972978437678
302.020149401806
301.396153268968
301.346547964802
301.304861289591
301.275907825753
301.257596508311
301.246561774909
301.240073835255
301.236328263706
301.234211541366
301.233047006161
301.232426045942
301.232106071342
301.231946983527
301.231870683258
301.231835378596
301.231819615441
301.231812834012
301.23181000121
301.231808834985
301.231808355017
301.231808141025
301.231808021262
301.231807938296
301.231807881186
301.231807838568
301.231807802913
301.23180777499
301.231807750962
301.231807732383
301.231807748083
301.231807884744
301.231808344211
301.231809602642
301.231812673592
301.231819863357
301.231836340822
301.231872927148
301.231951379887
301.232113784842
301.232438279868
301.233064572382
301.23423391033
301.23635212127
301.240093145042
301.246574992637
301.257634537834
301.276096846884
301.305484099658
301.347947325548
301.397894814264
300.912341974409
300.867616255678
300.832909796249
300.809677897066
300.795387521737
300.786982914075
300.782147983019
300.779408218753
300.777883098382
300.777053897634
300.776615763717
300.776391565694
300.776280689009
300.77622773808
300.776203331484
300.776192483459
300.776187845751
300.77618593419
300.77618516963
300.776184871239
300.776184750198
300.776184688037
300.776184644709
300.776184614828
300.776184593596
300.776184574503
300.77618455646
300.776184536981
300.776184518486
300.776184514182
300.776184577109
300.776184852801
300.776185678363
300.776187734037
300.776192585939
300.776203791804
300.776228836993
300.776282874223
300.776395459595
300.776622062849
300.77706317319
300.777895284624
300.779421822859
300.782160464546
300.786997100218
300.795436231901
300.809881609782
300.833546795039
300.869094329941
300.914602930735
300.564617849829
300.528713556131
300.502574690202
300.485667223262
300.475546162772
300.469735190554
300.466463550888
300.464643131362
300.46364432716
300.46310718676
300.46282563468
300.462682379532
300.462611813383
300.462578208883
300.462562756641
300.462555909354
300.46255299706
300.462551811148
300.462551349865
300.462551180111
300.46255111958
300.462551093426
300.462551075009
300.462551062117
300.462551053955
300.462551045279
300.462551034598
300.462551020374
300.462551004177
300.462550993542
300.462551014657
300.462551161638
300.462551658391
300.46255292315
300.462555930284
300.462562920404
300.462578621645
300.462612654375
300.462683912369
300.462828176643
300.463111035025
300.463649512289
300.46464902053
300.466469312798
300.46974492845
300.475588697873
300.48584468332
300.503132705382
300.530062813797
300.566955027803
300.331681468397
300.305505467553
300.28743723795
300.276115597614
300.269514013169
300.265811735159
300.263770829229
300.262655242015
300.262051601889
300.261730258926
300.261563005848
300.261478299978
300.261436693463
300.261416913684
300.26140783018
300.261403812984
300.261402111877
300.261401427171
300.261401168466
300.261401079518
300.261401052992
300.26140104596
300.261401041076
300.26140103723
300.261401035986
300.261401033097
300.261401027318
300.261401017837
300.261401005395
300.261400995029
300.261400997477
300.261401067311
300.261401343548
300.261402067808
300.261403803322
300.261407859747
300.261417004854
300.261436891072
300.26147867973
300.26156366745
300.26173130232
300.262053006825
300.26265665858
300.263771948944
300.265815991521
300.269543191845
300.276247605819
300.287868464221
300.306597865147
300.333749058222
300.185401727484
300.167835932822
300.156251981578
300.149204261223
300.145196956948
300.143000194078
300.1418138914
300.141176614209
300.140836385858
300.140656990343
300.140564203475
300.14051738758
300.140494436729
300.140483534643
300.14047853031
300.140476319821
300.140475387456
300.140475016497
300.14047488051
300.140474837753
300.140474829339
300.140474830297
300.140474830747
300.140474830872
300.140474831896
300.140474831558
300.140474828644
300.140474822868
300.140474814265
300.14047480568
300.14047480228
300.140474832269
300.140474975024
300.14047536442
300.14047630604
300.140478517268
300.140483514981
300.140494404482
300.140517342756
300.140564150213
300.140656926262
300.140836231774
300.141176079056
300.141812686514
300.143000443597
300.145213165708
300.149290501284
300.156551758612
300.168634776457
300.187024391067
300.098856970014
300.087898866626
300.08095426556
300.076843259509
300.074561247102
300.073337479199
300.072689744536
300.072347657836
300.072167398052
300.072073209998
300.072024769481
300.072000402922
300.071988471753
300.071982804659
300.071980202783
300.071979054267
300.071978571637
300.071978381908
300.071978314735
300.071978297032
300.071978296244
300.071978298479
300.071978300419
300.071978301864
300.071978303205
300.071978303394
300.071978302096
300.071978298739
300.071978293277
300.071978287152
300.071978283142
300.071978294474
300.071978363608
300.0719785615
300.071979045214
300.071980185753
300.071982767388
300.071988397648
300.072000273027
300.072024560488
300.072072884901
300.072166855912
300.072346629853
300.072687873805
300.073335743283
300.074568268721
300.076893497734
300.081144346352
300.088433672574
300.100011380059
300.050404194508
300.044000206068
300.040081413226
300.037819902099
300.036592907502
300.035948701353
300.035614326043
300.035440662406
300.035350318263
300.03530352286
300.035279580597
300.035267566698
300.035261687398
300.035258893395
300.035257609689
300.035257043202
300.035256806027
300.035256713978
300.035256683064
300.035256676636
300.035256677668
300.035256679796
300.03525668166
300.03525668313
300.035256684197
300.035256684547
300.035256684001
300.035256682096
300.035256678868
300.03525667496
300.03525667179
300.035256675371
300.035256707101
300.035256802698
300.035257039299
300.035257599157
300.03525886715
300.035261632281
300.035267466125
300.035279412171
300.035303249142
300.0353498484
300.035439769584
300.035612646037
300.035946494157
300.03659478106
300.037846175598
300.040192480405
300.044331420368
300.051159596506
300.024633566867
300.021105604466
300.019012652808
300.017833074018
300.01720682177
300.016884650641
300.016720580455
300.01663676007
300.016593703519
300.016571590307
300.016560330638
300.016554691846
300.016551932506
300.016550619878
300.016550016111
300.016549749683
300.016549638553
300.016549595991
300.016549582674
300.016549580773
300.016549581868
300.01654958341
300.016549584753
300.016549585822
300.016549586534
300.016549586839
300.016549586614
300.016549585576
300.016549583786
300.016549581507
300.016549579518
300.016549580365
300.01654959414
300.016549638204
300.016549748914
300.016550011705
300.016550606766
300.01655190315
300.01655463638
300.016560234721
300.016571427256
300.016593406219
300.016636159193
300.016719369407
300.016882754554
300.017206454148
300.017845392544
300.019072927906
300.021296946549
300.025093067048
300.011565983893
300.00972429392
300.008661384008
300.008075364975
300.007770568455
300.007616803588
300.007539933737
300.007501295386
300.007481695753
300.007471713355
300.007466653434
300.007464123456
300.007462884939
300.007462294943
300.007462023171
300.007461903227
300.007461853392
300.007461834609
300.007461829231
300.007461828858
300.007461829609
300.007461830572
300.007461831404
300.007461832066
300.00746183249
300.007461832692
300.007461832599
300.007461832061
300.007461831122
300.007461829886
300.00746182873
300.00746182877
300.00746183452
300.007461853998
300.007461903754
300.007462022189
300.007462290134
300.007462872822
300.007464099398
300.007466610082
300.007471634883
300.007481538895
300.007500946991
300.007539171212
300.00761545509
300.007769580376
300.008080473501
300.008691947367
300.00982810739
300.011827937012
300.005228495894
300.004313427358
300.003798066738
300.00351967286
300.003377661111
300.003307347838
300.003272824037
300.003255746804
300.003247192013
300.003242870789
300.003240689853
300.003239600748
300.003239067191
300.003238812574
300.003238695088
300.003238643223
300.003238621764
300.003238613843
300.003238611767
300.003238611787
300.003238612258
300.003238612802
300.003238613267
300.003238613636
300.003238613867
300.003238613983
300.003238613943
300.003238613677
300.00323861321
300.00323861258
300.00323861196
300.003238611843
300.003238614154
300.00323862245
300.003238644006
300.003238695438
300.003238811623
300.003239063651
300.003239592901
300.003240674568
300.003242839814
300.003247120193
300.003255565323
300.003272388818
300.003306500279
300.003376750659
300.003521472469
300.003812612726
300.004366626177
300.00536936776
300.002280349437
300.001845938888
300.001606539259
300.001479640672
300.001416082435
300.001385171628
300.001370257086
300.001362995281
300.001359402639
300.001357602778
300.001356698148
300.001356246843
300.00135602551
300.001355919673
300.001355870743
300.001355849136
300.001355840233
300.001355837023
300.001355836257
300.001355836341
300.001355836605
300.001355836889
300.001355837129
300.001355837319
300.001355837436
300.001355837496
300.001355837479
300.001355837353
300.001355837131
300.001355836827
300.001355836518
300.001355836417
300.001355837316
300.001355840735
300.001355849766
300.001355871355
300.001355920027
300.001356025273
300.001356245587
300.001356694801
300.001357593457
300.001359373882
300.001362908448
300.001370027155
300.001384685895
300.001415442554
300.001480111453
300.001613058049
300.001871811585
300.002352198314
300.00096137833
300.000763675058
300.000656802605
300.000601134589
300.000573728309
300.000560625064
300.000554408552
300.000551428453
300.000549972341
300.000549248814
300.000548886625
300.000548706071
300.000548617402
300.000548574904
300.000548555215
300.000548546516
300.000548542947
300.000548541692
300.000548541422
300.000548541485
300.000548541619
300.000548541758
300.000548541874
300.000548541965
300.000548542021
300.00054854205
300.000548542042
300.000548541985
300.000548541885
300.000548541745
300.0005485416
300.000548541541
300.000548541882
300.00054854325
300.000548546919
300.000548555704
300.000548575459
300.000548618016
300.000548706762
300.00054888715
300.000549247501
300.000549962463
300.00055138975
300.000554294563
300.000560366543
300.000573339578
300.000601161368
300.000659558843
300.000775666235
300.000996290219
300.000392500724
300.000305987791
300.000260013615
300.000236449317
300.000225033632
300.000219663408
300.000217156744
300.000215973256
300.000215402104
300.000215120621
300.000214980266
300.000214910335
300.000214875938
300.000214859409
300.000214851733
300.000214848339
300.000214846952
300.000214846475
300.000214846383
300.000214846419
300.000214846482
300.000214846546
300.000214846599
300.00021484664
300.000214846665
300.000214846677
300.000214846674
300.000214846649
300.000214846606
300.000214846545
300.000214846481
300.000214846452
300.000214846578
300.000214847112
300.000214848563
300.000214852037
300.000214859825
300.000214876533
300.000214911219
300.000214981453
300.000215121449
300.000215399404
300.000215957018
300.000217103188
300.000219534066
300.000224819768
300.000236374012
300.000261113661
300.000311302895
300.000408724949
300.000155443899
300.000118947752
300.000099844325
300.000090196734
300.00008559271
300.000083459823
300.00008247967
300.00008202373
300.000081806376
300.000081700127
300.000081647351
300.000081621064
300.000081608109
300.000081601866
300.000081598959
300.000081597671
300.000081597146
300.000081596969
300.000081596938
300.000081596955
300.000081596982
300.000081597009
300.000081597032
300.000081597049
300.00008159706
300.000081597065
300.000081597063
300.000081597053
300.000081597035
300.00008159701
300.000081596984
300.000081596971
300.000081597018
300.000081597223
300.000081597782
300.000081599121
300.000081602111
300.000081608495
300.000081621681
300.000081648261
300.000081701088
300.000081805968
300.000082017259
300.000082455638
300.000083398458
300.00008548362
300.00009012636
300.000100258193
300.00012120794
300.000162679065
300.000059810797
300.000044933054
300.000037249045
300.000033420793
300.000031619223
300.00003079659
300.000030424146
300.000030253377
300.000030172945
300.000030133945
300.000030114643
300.00003010503
300.000030100281
300.000030097985
300.000030096911
300.000030096434
300.000030096239
300.000030096174
300.000030096162
300.000030096169
300.000030096179
300.00003009619
300.000030096198
300.000030096205
300.000030096209
300.000030096211
300.00003009621
300.000030096206
300.000030096199
300.00003009619
300.00003009618
300.000030096175
300.000030096194
300.000030096271
300.000030096483
300.000030096988
300.000030098109
300.000030100488
300.000030105375
300.000030115175
300.000030134582
300.000030173078
300.000030250904
300.000030413783
300.000030768799
300.000031566899
300.000033375657
300.000037395224
300.000045857646
300.000062916099
300.000022392325
300.00001651914
300.000013521526
300.000012046499
300.000011361272
300.000011052596
300.000010914807
300.0000108525
300.000010823499
300.000010809547
300.000010802665
300.000010799236
300.000010797537
300.000010796711
300.000010796323
300.000010796149
300.000010796077
300.000010796051
300.000010796046
300.000010796047
300.00001079605
300.000010796053
300.000010796056
300.000010796058
300.000010796059
300.00001079606
300.000010796059
300.000010796058
300.000010796056
300.000010796053
300.00001079605
300.000010796049
300.000010796057
300.000010796087
300.000010796167
300.000010796354
300.000010796766
300.000010797634
300.000010799404
300.000010802933
300.000010809888
300.000010823662
300.000010851584
300.000010910488
300.000011040517
300.00001133745
300.000012021924
300.00001356957
300.000016883878
300.00002367838
300.000008168351
300.00000591883
300.000004782725
300.00000422998
300.000003976245
300.00000386338
300.000003813665
300.000003791481
300.000003781271
300.000003776396
300.000003773998
300.000003772801
300.000003772204
300.000003771912
300.000003771772
300.000003771708
300.00000377168
300.000003771669
300.000003771666
300.000003771665
300.000003771665
300.000003771665
300.000003771665
300.000003771665
300.000003771665
300.000003771665
300.000003771665
300.000003771665
300.000003771664
300.000003771664
300.000003771664
300.000003771664
300.000003771669
300.000003771681
300.000003771712
300.000003771782
300.000003771932
300.000003772243
300.000003772872
300.000003774116
300.000003776554
300.000003781369
300.000003791145
300.000003811916
300.000003858319
300.00000396588
300.000004217883
300.000004797151
300.000006057879
300.000008683486
300.000002907091
300.000002069677
300.000001650719
300.000001448986
300.00000135739
300.00000131712
300.000001299601
300.000001291879
300.000001288362
300.000001286693
300.000001285873
300.000001285461
300.000001285254
300.00000128515
300.000001285099
300.000001285074
300.000001285062
300.000001285056
300.000001285052
300.00000128505
300.000001285049
300.000001285048
300.000001285047
300.000001285046
300.000001285046
300.000001285046
300.000001285046
300.000001285046
300.000001285046
300.000001285047
300.000001285048
300.000001285049
300.000001285052
300.000001285058
300.000001285071
300.000001285098
300.000001285154
300.000001285265
300.000001285486
300.000001285918
300.000001286757
300.000001288406
300.000001291753
300.000001298908
300.000001315066
300.000001353056
300.000001443448
300.000001654513
300.000002121005
300.000003107073
300.000001010749
300.000000707288
300.000000556776
300.000000484995
300.000000452729
300.000000438694
300.000000432655
300.000000430022
300.000000428833
300.00000042827
300.000000427992
300.00000042785
300.000000427777
300.000000427738
300.000000427718
300.000000427706
300.000000427699
300.000000427695
300.000000427692
300.00000042769
300.000000427688
300.000000427686
300.000000427685
300.000000427684
300.000000427684
300.000000427683
300.000000427683
300.000000427684
300.000000427684
300.000000427685
300.000000427686
300.000000427688
300.000000427691
300.000000427695
300.000000427701
300.000000427713
300.000000427735
300.000000427776
300.000000427855
300.000000428005
300.00000042829
300.000000428846
300.00000042997
300.000000432382
300.000000437882
300.000000450979
300.0000004826
300.000000557547
300.000000725665
300.000001086132
300.000000343821
300.000000236626
300.00000018391
300.000000159003
300.000000147909
300.000000143128
300.000000141089
300.000000140207
300.000000139809
300.00000013962
300.000000139524
300.000000139473
300.000000139445
300.000000139428
300.000000139418
300.000000139411
300.000000139406
300.000000139403
300.000000139399
300.000000139397
300.000000139395
300.000000139393
300.000000139392
300.000000139391
300.00000013939
300.00000013939
300.00000013939
300.00000013939
300.000000139391
300.000000139392
300.000000139393
300.000000139395
300.000000139398
300.000000139401
300.000000139405
300.000000139412
300.000000139422
300.000000139439
300.000000139469
300.000000139523
300.000000139621
300.000000139808
300.000000140181
300.00000014098
300.000000142812
300.000000147223
300.000000158014
300.000000183959
300.000000243018
300.000000371459
300.000000114676
300.000000077726
300.000000059735
300.000000051321
300.000000047606
300.000000046016
300.00000004534
300.000000045047
300.000000044913
300.000000044847
300.000000044812
300.000000044791
300.000000044777
300.000000044768
300.000000044761
300.000000044756
300.000000044752
300.000000044748
300.000000044745
300.000000044743
300.00000004474
300.000000044739
300.000000044737
300.000000044736
300.000000044736
300.000000044735
300.000000044735
300.000000044736
300.000000044736
300.000000044737
300.000000044739
300.000000044741
300.000000044743
300.000000044746
300.00000004475
300.000000044755
300.000000044761
300.00000004477
300.000000044783
300.000000044805
300.000000044841
300.000000044906
300.000000045031
300.000000045293
300.000000045892
300.000000047342
300.000000050929
300.000000059671
300.000000079888
300.000000124546
300.000000037674
300.00000002524
300.000000019282
300.000000016538
300.000000015337
300.000000014823
300.000000014603
300.000000014504
300.000000014456
300.00000001443
300.000000014414
300.000000014402
300.000000014394
300.000000014387
300.000000014382
300.000000014377
300.000000014373
300.000000014369
300.000000014366
300.000000014364
300.000000014361
300.00000001436
300.000000014358
300.000000014357
300.000000014357
300.000000014356
300.000000014356
300.000000014357
300.000000014357
300.000000014358
300.00000001436
300.000000014362
300.000000014364
300.000000014367
300.000000014371
300.000000014375
300.00000001438
300.000000014386
300.000000014394
300.000000014405
300.000000014421
300.000000014446
300.000000014491
300.000000014578
300.000000014772
300.000000015236
300.000000016387
300.000000019233
300.000000025952
300.000000041111
300.00000001234
300.000000008261
300.000000006377
300.00000000554
300.000000005177
300.000000005018
300.000000004946
300.000000004911
300.00000000489
300.000000004877
300.000000004867
300.000000004858
300.000000004851
300.000000004846
300.00000000484
300.000000004836
300.000000004832
300.000000004828
300.000000004825
300.000000004823
300.00000000482
300.000000004819
300.000000004817
300.000000004816
300.000000004816
300.000000004815
300.000000004815
300.000000004816
300.000000004816
300.000000004818
300.000000004819
300.000000004821
300.000000004823
300.000000004826
300.000000004829
300.000000004833
300.000000004838
300.000000004843
300.00000000485
300.000000004857
300.000000004867
300.00000000488
300.000000004899
300.00000000493
300.000000004994
300.000000005136
300.000000005482
300.000000006352
300.00000000849
300.000000013508
300.000000004172
300.000000002877
300.000000002343
300.000000002132
300.000000002043
300.000000001999
300.000000001975
300.000000001959
300.000000001947
300.000000001937
300.000000001929
300.000000001922
300.000000001916
300.00000000191
300.000000001905
300.0000000019
300.000000001896
300.000000001893
300.00000000189
300.000000001887
300.000000001885
300.000000001884
300.000000001882
300.000000001881
300.00000000188
300.00000000188
300.00000000188
300.000000001881
300.000000001881
300.000000001882
300.000000001884
300.000000001886
300.000000001888
300.000000001891
300.000000001894
300.000000001898
300.000000001902
300.000000001907
300.000000001913
300.00000000192
300.000000001927
300.000000001936
300.000000001947
300.000000001962
300.000000001984
300.000000002024
300.00000000211
300.000000002333
300.000000002949
300.00000000456
300.000000001591
300.000000001203
300.000000001107
300.000000001098
300.000000001095
300.000000001088
300.000000001078
300.000000001068
300.000000001059
300.00000000105
300.000000001043
300.000000001036
300.000000001029
300.000000001024
300.000000001019
300.000000001014
300.000000001011
300.000000001007
300.000000001004
300.000000001002
300.000000001
300.000000000998
300.000000000997
300.000000000996
300.000000000995
300.000000000995
300.000000000995
300.000000000995
300.000000000996
300.000000000997
300.000000000998
300.000000001
300.000000001002
300.000000001005
300.000000001008
300.000000001012
300.000000001017
300.000000001022
300.000000001027
300.000000001033
300.000000001041
300.000000001048
300.000000001057
300.000000001067
300.000000001076
300.000000001084
300.000000001088
300.000000001103
300.000000001225
300.000000001715
300.000000000791
300.000000000693
300.000000000736
300.00000000079
300.000000000815
300.000000000818
300.000000000813
300.000000000804
300.000000000795
300.000000000787
300.00000000078
300.000000000773
300.000000000766
300.000000000761
300.000000000756
300.000000000752
300.000000000748
300.000000000744
300.000000000742
300.000000000739
300.000000000737
300.000000000735
300.000000000734
300.000000000733
300.000000000733
300.000000000732
300.000000000732
300.000000000733
300.000000000733
300.000000000734
300.000000000736
300.000000000738
300.00000000074
300.000000000743
300.000000000746
300.00000000075
300.000000000754
300.000000000759
300.000000000764
300.000000000771
300.000000000777
300.000000000785
300.000000000793
300.000000000802
300.000000000808
300.000000000807
300.000000000786
300.000000000736
300.000000000701
300.000000000829
300.00000000055
300.000000000543
300.000000000629
300.000000000701
300.000000000734
300.00000000074
300.000000000735
300.000000000727
300.000000000718
300.00000000071
300.000000000702
300.000000000695
300.000000000689
300.000000000684
300.000000000679
300.000000000674
300.000000000671
300.000000000667
300.000000000665
300.000000000662
300.00000000066
300.000000000659
300.000000000657
300.000000000656
300.000000000656
300.000000000656
300.000000000656
300.000000000656
300.000000000657
300.000000000658
300.000000000659
300.000000000661
300.000000000663
300.000000000666
300.000000000669
300.000000000673
300.000000000677
300.000000000682
300.000000000687
300.000000000693
300.0000000007
300.000000000708
300.000000000716
300.000000000724
300.00000000073
300.000000000727
300.000000000699
300.00000000063
300.000000000546
300.00000000056
300.00000000048
300.000000000502
300.0000000006
300.000000000677
300.000000000711
300.000000000717
300.000000000712
300.000000000704
300.000000000695
300.000000000687
300.000000000679
300.000000000672
300.000000000666
300.00000000066
300.000000000656
300.000000000651
300.000000000648
300.000000000645
300.000000000642
300.00000000064
300.000000000638
300.000000000636
300.000000000635
300.000000000634
300.000000000633
300.000000000633
300.000000000633
300.000000000633
300.000000000634
300.000000000635
300.000000000636
300.000000000638
300.00000000064
300.000000000643
300.000000000646
300.00000000065
300.000000000654
300.000000000659
300.000000000664
300.00000000067
300.000000000677
300.000000000685
300.000000000694
300.000000000702
300.000000000708
300.000000000705
300.000000000676
300.000000000602
300.000000000504
300.000000000482
300.000000000464
300.000000000494
300.000000000595
300.000000000673
300.000000000706
300.000000000711
300.000000000706
300.000000000697
300.000000000687
300.000000000679
300.000000000671
300.000000000664
300.000000000658
300.000000000653
300.000000000648
300.000000000644
300.00000000064
300.000000000637
300.000000000635
300.000000000632
300.00000000063
300.000000000629
300.000000000628
300.000000000627
300.000000000626
300.000000000626
300.000000000626
300.000000000626
300.000000000627
300.000000000628
300.000000000629
300.000000000631
300.000000000633
300.000000000636
300.000000000639
300.000000000642
300.000000000646
300.000000000651
300.000000000657
300.000000000663
300.00000000067
300.000000000678
300.000000000687
300.000000000696
300.000000000702
300.0000000007
300.000000000671
300.000000000597
300.000000000496
300.000000000463
300.000000000463
300.000000000496
300.000000000597
300.000000000673
300.000000000705
300.000000000709
300.000000000703
300.000000000693
300.000000000684
300.000000000675
300.000000000667
300.00000000066
300.000000000654
300.000000000649
300.000000000645
300.000000000641
300.000000000637
300.000000000634
300.000000000632
300.000000000629
300.000000000628
300.000000000626
300.000000000625
300.000000000624
300.000000000624
300.000000000623
300.000000000623
300.000000000624
300.000000000624
300.000000000625
300.000000000627
300.000000000628
300.00000000063
300.000000000633
300.000000000636
300.000000000639
300.000000000643
300.000000000648
300.000000000653
300.00000000066
300.000000000667
300.000000000675
300.000000000684
300.000000000693
300.000000000701
300.000000000699
300.000000000672
300.0000000006
300.000000000498
300.000000000463
300.000000000469
300.000000000502
300.000000000602
300.000000000676
300.000000000706
300.000000000709
300.000000000701
300.000000000691
300.000000000681
300.000000000672
300.000000000665
300.000000000658
300.000000000652
300.000000000647
300.000000000642
300.000000000638
300.000000000635
300.000000000632
300.00000000063
300.000000000627
300.000000000626
300.000000000624
300.000000000623
300.000000000622
300.000000000622
300.000000000622
300.000000000622
300.000000000622
300.000000000623
300.000000000624
300.000000000625
300.000000000626
300.000000000628
300.000000000631
300.000000000634
300.000000000637
300.000000000641
300.000000000646