/*--------------------------------*- C++ -*----------------------------------*\
  =========                 |
  \\      /  F ield         | OpenFOAM: The Open Source CFD Toolbox
   \\    /   O peration     | Website:  https://openfoam.org
    \\  /    A nd           | Version:  10
     \\/     M anipulation  |
\*---------------------------------------------------------------------------*/
FoamFile
{
    format      ascii;
    class       volVectorField;
    location    "8.2";
    object      U;
}
// * * * * * * * * * * * * * * * * * * * * * * * * * * * * * * * * * * * * * //

dimensions      [0 1 -1 0 0 0 0];

internalField   nonuniform List<vector> 
2500
(
(-1.24153262327939e-06 -1.49838334383165e-06 2.09722359242796e-25)
(-3.27201673057496e-06 -2.08610556269746e-06 2.56620802006284e-24)
(-3.6314764803658e-06 -2.30713146839605e-06 2.81941743540414e-25)
(-3.10088400077079e-06 -2.41313280164996e-06 -4.25118018637763e-26)
(-2.28584449217695e-06 -2.4291272392673e-06 -6.64743613304363e-25)
(-1.59647251730195e-06 -2.41491182501744e-06 -7.64861895981463e-25)
(-1.08139531931121e-06 -2.39359249443403e-06 -2.81732773436319e-25)
(-7.29846984841925e-07 -2.37541156764066e-06 -2.68472613229055e-25)
(-4.92835424208157e-07 -2.36139433292321e-06 -4.66057898190857e-25)
(-3.35597025061257e-07 -2.35145921124028e-06 2.85537970549792e-24)
(-2.30486023272792e-07 -2.34466321703716e-06 1.65997069285246e-24)
(-1.59609296690356e-07 -2.34021540042074e-06 3.93987384812799e-24)
(-1.1094971592703e-07 -2.33740017835016e-06 3.46147096809294e-24)
(-7.67821940258751e-08 -2.33566032938371e-06 1.30607762596498e-24)
(-5.2166491786304e-08 -2.33460633154117e-06 3.17059351122376e-24)
(-3.39508117343892e-08 -2.3339677191788e-06 9.00373497556034e-25)
(-2.01318553812392e-08 -2.33358379423163e-06 3.6370228282111e-24)
(-9.41220302545047e-09 -2.33334640250215e-06 2.59231852688331e-24)
(-9.26457504682621e-10 -2.33320094503193e-06 6.5346639709063e-25)
(5.91545719715741e-09 -2.33310356470468e-06 2.57186897768744e-24)
(1.1525392835509e-08 -2.33304333079944e-06 4.02734806870971e-26)
(1.62131256444472e-08 -2.33300542013146e-06 -2.53945401609227e-25)
(2.02192469654316e-08 -2.33298471233979e-06 3.12213075351008e-24)
(2.37324925620511e-08 -2.33297552668008e-06 3.30766063748795e-25)
(2.69203208574307e-08 -2.33297202995752e-06 -1.36407680062761e-25)
(2.99343417940577e-08 -2.3329822566227e-06 2.89812956209872e-24)
(3.29196433014791e-08 -2.33300049780532e-06 1.05145478183717e-25)
(3.60282092441144e-08 -2.33302884290078e-06 1.02365518627327e-24)
(3.94209812480106e-08 -2.33307379721973e-06 3.24096655239262e-24)
(4.32909013506348e-08 -2.33312887713111e-06 -1.02228337755209e-25)
(4.78757319176648e-08 -2.33320430601711e-06 2.32039004651105e-25)
(5.34791496786108e-08 -2.33332287882567e-06 -2.96413782062643e-25)
(6.05117434001645e-08 -2.3334943595075e-06 7.81039584692898e-25)
(6.95570462344855e-08 -2.33375569657993e-06 7.82030157272902e-25)
(8.14814668967848e-08 -2.3341687228826e-06 -5.14216100231113e-26)
(9.75913850894335e-08 -2.33483463130433e-06 2.62539941834338e-24)
(1.19898037302949e-07 -2.33592033589999e-06 -2.71354145013786e-24)
(1.51563158595654e-07 -2.33768339496653e-06 -2.71308401357558e-25)
(1.975163156901e-07 -2.34051460618143e-06 2.23119565299495e-26)
(2.65474283307632e-07 -2.34495717224471e-06 -1.71676029210407e-24)
(3.67442645081257e-07 -2.35171641224219e-06 -4.9023668869042e-24)
(5.2132014535675e-07 -2.36159042901848e-06 -4.66429754496119e-24)
(7.54831233857557e-07 -2.3755390402484e-06 -2.4958660335395e-24)
(1.1033312048847e-06 -2.39379685647806e-06 -4.55918951988344e-24)
(1.61721377108769e-06 -2.4155365535709e-06 -4.74244752741415e-24)
(2.3106445970972e-06 -2.43071680192019e-06 -2.6236808597887e-24)
(3.13745326851314e-06 -2.41555498209255e-06 -4.62867233784288e-24)
(3.68324961129904e-06 -2.30797351385597e-06 -4.59133639249202e-24)
(3.31154757536762e-06 -2.08142212407393e-06 -2.04519895989308e-24)
(1.24764491171865e-06 -1.49644527646426e-06 -2.57308778903584e-24)
(-1.74545298634693e-06 -1.63515166415781e-06 -4.57963862200029e-26)
(-5.76185870268974e-06 -3.07547197672055e-06 -2.49507139481959e-25)
(-6.64745871055105e-06 -4.34122616671448e-06 5.10819232557739e-26)
(-5.84452229934679e-06 -4.95438549259804e-06 -3.3098575859789e-25)
(-4.41687828304355e-06 -5.03474524276874e-06 -2.38304282539265e-24)
(-3.15620687760764e-06 -4.90160948100721e-06 -2.40433270334275e-24)
(-2.18844872893946e-06 -4.73588158302693e-06 -8.28771346168695e-25)
(-1.51323097624743e-06 -4.59909776982687e-06 -8.54702781753564e-25)
(-1.04977011581346e-06 -4.50008398648769e-06 -2.24065879985441e-24)
(-7.36039414643984e-07 -4.43237047438653e-06 1.56327728502647e-25)
(-5.21573410779287e-07 -4.38739969739938e-06 3.21420629273617e-24)
(-3.73036700885621e-07 -4.35803918374806e-06 3.07436367685847e-24)
(-2.67935918303172e-07 -4.3390500506829e-06 1.39297938902999e-24)
(-1.9170749596515e-07 -4.3267796579548e-06 2.24007030270781e-24)
(-1.34970240478615e-07 -4.31877964489374e-06 7.43458384842568e-25)
(-9.16582853771473e-08 -4.31347664017982e-06 9.3765829955814e-25)
(-5.7835397090927e-08 -4.30987795142428e-06 2.14927093218526e-24)
(-3.08886041588894e-08 -4.30737092049561e-06 9.5901080969704e-25)
(-9.03392692392483e-09 -4.30557647810465e-06 3.0591612195876e-25)
(8.97981791657517e-09 -4.30426984437516e-06 -3.19490921135023e-25)
(2.40606539443018e-08 -4.30331105321982e-06 -6.82277810750739e-25)
(3.6912813602676e-08 -4.30260458164231e-06 -1.60081126466064e-24)
(4.80905539385842e-08 -4.30210396355943e-06 1.20998751636666e-24)
(5.80515770269292e-08 -4.3017649632511e-06 9.12134919386476e-26)
(6.71921609463685e-08 -4.30157479396983e-06 -1.3258813407942e-24)
(7.58846624331631e-08 -4.30152006403878e-06 8.09648335946849e-25)
(8.44913049610513e-08 -4.3016065094351e-06 -6.48721183604349e-25)
(9.33749917706616e-08 -4.3018319575057e-06 2.28650031754546e-24)
(1.02937485553581e-07 -4.30223242405032e-06 1.74784820883856e-24)
(1.13635378608551e-07 -4.30282948856809e-06 -1.09722174538962e-24)
(1.26004498202358e-07 -4.30368321177004e-06 6.96322982062032e-25)
(1.40741285150823e-07 -4.30488420577175e-06 -9.37933594560942e-25)
(1.58754618823168e-07 -4.30656832363837e-06 2.30411528704103e-24)
(1.81278752473629e-07 -4.30897440849007e-06 2.2411396877049e-24)
(2.10099693960311e-07 -4.31248032281538e-06 -9.40680897996755e-25)
(2.47839879612545e-07 -4.31769847163485e-06 6.81947590881348e-25)
(2.98448552635218e-07 -4.32562061395086e-06 -1.16070860083511e-24)
(3.68008009503576e-07 -4.33782078478911e-06 -1.03771035462703e-25)
(4.65896300500968e-07 -4.35670993754387e-06 5.83279799328481e-25)
(6.06691221116938e-07 -4.38594315841759e-06 -3.57638250373594e-24)
(8.12872089325298e-07 -4.43073588712057e-06 -4.72846075561838e-24)
(1.11787165589239e-06 -4.49828342946208e-06 -4.73638028069158e-24)
(1.57236447359604e-06 -4.59738020363568e-06 -5.18650401340015e-24)
(2.23955906611538e-06 -4.73522381754217e-06 -4.67888771329363e-24)
(3.20301659404781e-06 -4.90427768390398e-06 -4.96282713346626e-24)
(4.46951415272292e-06 -5.04380075149323e-06 -5.40831694189287e-24)
(5.91825837873202e-06 -4.96865559594233e-06 -4.81567423858451e-24)
(6.75065859935633e-06 -4.34478705362247e-06 -4.62084667915131e-24)
(5.84767094843982e-06 -3.04957403530667e-06 -4.17492097654187e-24)
(1.76250360349393e-06 -1.6110206068558e-06 -2.16623719912589e-24)
(-1.17815302238555e-06 1.03017248675601e-06 -4.54852432179047e-25)
(-5.47670726996558e-06 -7.07143859358257e-07 -3.13402812351163e-24)
(-6.55809445060396e-06 -3.11312587949251e-06 -3.71044602579169e-25)
(-5.98232731369854e-06 -4.29864854345759e-06 -5.54142534170917e-25)
(-4.66875857661287e-06 -4.46457880542121e-06 -3.52367840306953e-24)
(-3.4485446798021e-06 -4.19859329068716e-06 -4.23197103804404e-24)
(-2.47386110727113e-06 -3.86555985037043e-06 -1.1045962281729e-24)
(-1.77205096943192e-06 -3.58969391045355e-06 -1.1889668810544e-24)
(-1.27514459793892e-06 -3.39096841679878e-06 -4.43994823407046e-24)
(-9.27751983296823e-07 -3.25564449222377e-06 -3.01769025084653e-24)
(-6.8200810308608e-07 -3.16592671096275e-06 4.25944860399184e-24)
(-5.05555019512902e-07 -3.10704082178947e-06 1.65799250782674e-24)
(-3.76098998089993e-07 -3.06843033556885e-06 -1.72613401133677e-24)
(-2.78880028050736e-07 -3.04291431698779e-06 2.91714194957322e-24)
(-2.0417580834385e-07 -3.02579020992194e-06 -2.38603011785706e-24)
(-1.45520745071895e-07 -3.01404755073956e-06 2.60135891393901e-25)
(-9.85730987163852e-08 -3.00578419461202e-06 3.79919151692249e-25)
(-6.0349768982582e-08 -2.99983771433901e-06 -2.25285008431281e-24)
(-2.87528508201426e-08 -2.99545385909984e-06 -5.39725644920496e-25)
(-2.25084715458724e-09 -2.99218202442969e-06 -3.429079315077e-24)
(2.0312256087362e-08 -2.98972059463531e-06 -1.39802536552048e-24)
(3.98385302135451e-08 -2.98787773525521e-06 -3.28574502477665e-24)
(5.70658121007048e-08 -2.98653864401999e-06 -5.50684667858617e-25)
(7.26127835128983e-08 -2.98561840400385e-06 -3.81639115022365e-25)
(8.70309388883133e-08 -2.98508332977597e-06 -3.17865020501135e-24)
(1.00831053701839e-07 -2.98489512086965e-06 -9.39006989021584e-25)
(1.14515177858348e-07 -2.98506400554631e-06 -2.28351068632812e-24)
(1.28590136262813e-07 -2.98561164429179e-06 3.52780431050403e-24)
(1.43598460698186e-07 -2.98657543560879e-06 2.68202985137858e-25)
(1.60163616519256e-07 -2.98804122688783e-06 -2.82476312481134e-24)
(1.79004918887972e-07 -2.99013091004197e-06 1.5067255310596e-24)
(2.01020428054363e-07 -2.99302889582561e-06 -1.70585452398476e-24)
(2.27347655444089e-07 -2.99702124887188e-06 3.97979811924255e-24)
(2.59500731003516e-07 -3.00258937162393e-06 3.8546754637202e-24)
(2.99588030456311e-07 -3.01047268883515e-06 -2.59629760391448e-24)
(3.50591900897555e-07 -3.02186468665233e-06 -7.42791120779895e-25)
(4.16853258990095e-07 -3.03865172914925e-06 2.94646559512067e-26)
(5.04865077540633e-07 -3.06385079431503e-06 3.09537316114038e-25)
(6.24354833247153e-07 -3.10213993306455e-06 2.00720092069877e-24)
(7.9011215637625e-07 -3.16071021246449e-06 -4.76434142012538e-24)
(1.02445128433805e-06 -3.25012143260298e-06 -3.33738391359966e-24)
(1.3599026434288e-06 -3.385275906957e-06 -3.48523556841925e-24)
(1.84463275964655e-06 -3.58449101405043e-06 -6.47279363159573e-24)
(2.53533074417329e-06 -3.86280762260706e-06 -3.55351638838625e-24)
(3.50286439957885e-06 -4.20280410524412e-06 -3.78225371862756e-24)
(4.72667548265381e-06 -4.48178482196713e-06 -6.99661469535945e-24)
(6.06103052955989e-06 -4.32693044968571e-06 -3.66388481315917e-24)
(6.67038891163397e-06 -3.12219904775913e-06 -3.38299563709379e-24)
(5.58286955262763e-06 -6.59336094502544e-07 -6.2301692253252e-24)
(1.20752018052398e-06 1.08975057263192e-06 -1.50848395466109e-24)
(-4.93198036223652e-07 3.62535803344329e-06 -4.65925278854876e-25)
(-3.78137130871395e-06 2.09226215110598e-06 -2.93553560482796e-24)
(-4.8211722465004e-06 -1.27606902848042e-06 -3.04691163907581e-25)
(-4.68009558141891e-06 -3.00969564079335e-06 -2.14706520524767e-25)
(-3.85555788821851e-06 -3.32923210238399e-06 -1.7291903999675e-24)
(-3.00667583193269e-06 -3.00938070143982e-06 -2.38652458988123e-24)
(-2.27348629590716e-06 -2.57116661444187e-06 -7.45892909593594e-25)
(-1.71375275926353e-06 -2.1969807207161e-06 -8.37581685194417e-25)
(-1.29452097112907e-06 -1.9231897579656e-06 -2.8702574929106e-24)
(-9.85419462701457e-07 -1.73420477166865e-06 -3.13745820611826e-24)
(-7.55248055132404e-07 -1.60712810014173e-06 2.40660629200161e-24)
(-5.81820251505109e-07 -1.52226933048786e-06 -3.12106310047452e-25)
(-4.48923509571203e-07 -1.46543574874055e-06 -2.56291966839063e-24)
(-3.45268970445857e-07 -1.42694607055841e-06 1.16361562711484e-24)
(-2.63038971020226e-07 -1.4004284103604e-06 -2.97709644287636e-24)
(-1.96740319991301e-07 -1.38176142409754e-06 -6.78980367614102e-26)
(-1.42499849381193e-07 -1.36830449949893e-06 -1.20788683108676e-24)
(-9.75079137612727e-08 -1.35839215791212e-06 -2.76934907780776e-24)
(-5.96964114768546e-08 -1.35096331451123e-06 -5.93344000460874e-25)
(-2.75054041640266e-08 -1.34532739670932e-06 -2.84281103352018e-24)
(2.89481852676579e-10 -1.3410359564747e-06 -1.14540561337013e-24)
(2.46688210311011e-08 -1.33779946962519e-06 -2.16618972528652e-24)
(4.64503008617321e-08 -1.33542583871164e-06 -2.1107407503079e-24)
(6.63353370205479e-08 -1.33378432863973e-06 -3.57800236133391e-25)
(8.49561905735475e-08 -1.3328123859481e-06 -1.78785408529863e-24)
(1.02904677140593e-07 -1.33246507071276e-06 -2.134793114344e-24)
(1.20751791005095e-07 -1.33273793625792e-06 -1.16343302817268e-24)
(1.3908973792828e-07 -1.33368160535424e-06 1.82900576074756e-24)
(1.58543773943107e-07 -1.33535195854209e-06 -1.58307743803933e-24)
(1.79807960044756e-07 -1.33788124580546e-06 -1.74253765133741e-24)
(2.036842914044e-07 -1.341458335686e-06 5.62586362414876e-25)
(2.3115320747858e-07 -1.34637795899851e-06 -1.1386170432431e-24)
(2.63418244404366e-07 -1.35307613741986e-06 2.33982034325388e-24)
(3.02024925917611e-07 -1.36225176227862e-06 2.2595307226054e-24)
(3.4903940984883e-07 -1.37498203756958e-06 -1.50248423334842e-24)
(4.07258255468497e-07 -1.39295215989449e-06 -1.49884265338165e-24)
(4.80557321879028e-07 -1.41878221487756e-06 1.61210853608331e-24)
(5.74437195079997e-07 -1.45659843118879e-06 3.98402397834411e-25)
(6.9672377648654e-07 -1.51278545024357e-06 7.4041164893694e-25)
(8.58749670490196e-07 -1.59703583907615e-06 -3.67792685672057e-24)
(1.07675918684086e-06 -1.7235914006298e-06 -1.11191018707986e-24)
(1.37314170281197e-06 -1.91236157930803e-06 -7.03753209352508e-25)
(1.77937973815179e-06 -2.18700753708623e-06 -4.61518588751173e-24)
(2.32692156228119e-06 -2.56502922994324e-06 -8.26363147590832e-25)
(3.05099865242689e-06 -3.01375453652025e-06 -1.48026067035671e-24)
(3.89958322692775e-06 -3.35327169091642e-06 -4.93993392375881e-24)
(4.73936794927255e-06 -3.05196750885586e-06 -8.70817124852199e-25)
(4.91097719426453e-06 -1.29526777202877e-06 -5.60962421200446e-25)
(3.88088906498199e-06 2.15386209195958e-06 -4.40181709927307e-24)
(5.29458665701351e-07 3.71538474612065e-06 2.6698150430851e-26)
(4.94129078920999e-08 5.51569769807936e-06 -9.92763507766877e-26)
(-1.76672457540855e-06 4.42163324131529e-06 -1.47655324272036e-24)
(-2.64437877053817e-06 4.6791683837601e-07 1.97396966929623e-25)
(-2.92920128792637e-06 -1.69706001037573e-06 2.79821272318109e-25)
(-2.67453024635187e-06 -2.2175560180648e-06 4.13883648678224e-25)
(-2.28411330687312e-06 -1.94017986946759e-06 -1.02816295220217e-24)
(-1.86808431803427e-06 -1.48156773249703e-06 -2.22929071566433e-25)
(-1.50717125747215e-06 -1.06868792650623e-06 -2.64029637123774e-25)
(-1.20682285841258e-06 -7.57370232478209e-07 -1.39607877167472e-24)
(-9.65502598982975e-07 -5.37004449026779e-07 -1.31663042273953e-24)
(-7.72300035866687e-07 -3.85233598987446e-07 1.75000988138528e-24)
(-6.17680856493025e-07 -2.81330371032007e-07 5.63112316510906e-25)
(-4.93244191109225e-07 -2.09928054178544e-07 -7.21396179137538e-25)
(-3.92305840611882e-07 -1.60288830330666e-07 9.04794467867304e-25)
(-3.09711141583525e-07 -1.2521854300456e-07 -1.03059230954261e-24)
(-2.41466886357107e-07 -9.99450047572313e-08 3.46477792733471e-25)
(-1.84513892808536e-07 -8.13552782136276e-08 -1.12866151875659e-26)
(-1.36491852828013e-07 -6.74276810138533e-08 -6.63552969881082e-25)
(-9.5561235883414e-08 -5.68436950788128e-08 1.46519379695252e-25)
(-6.02578437120392e-08 -4.87296457908247e-08 -1.24656499485948e-24)
(-2.94027751582528e-08 -4.25085700162277e-08 -3.01749823860331e-25)
(-2.02521277047373e-09 -3.7787870625329e-08 -9.16055303064442e-25)
(2.2709348297441e-08 -3.43141953750457e-08 -5.33228549079575e-25)
(4.55198782077183e-08 -3.19160959189495e-08 1.33092037268273e-25)
(6.7068182651108e-08 -3.04847184759757e-08 -6.4761097369114e-25)
(8.79785903903959e-08 -2.99827488003581e-08 -6.1454149715384e-25)
(1.08847038330182e-07 -3.04058938652138e-08 -4.07697811816118e-25)
(1.30294630333901e-07 -3.17933910388609e-08 1.10164422165367e-24)
(1.52973606594591e-07 -3.42543965412019e-08 -4.83053639533517e-25)
(1.77602606705216e-07 -3.79533261971962e-08 -9.55853212643898e-25)
(2.04996130886602e-07 -4.31459432957294e-08 2.12990695295695e-25)
(2.36122561250591e-07 -5.02125943308389e-08 -7.86427023822352e-25)
(2.7214379472707e-07 -5.97372175240341e-08 1.21456143164708e-24)
(3.14501042350539e-07 -7.25939591359955e-08 1.232304307178e-24)
(3.65030478612829e-07 -9.01176280181884e-08 -8.37125097236243e-25)
(4.26082159984516e-07 -1.14340410638241e-07 -8.26243050809784e-25)
(5.00695288533034e-07 -1.48376344893017e-07 5.52645671077224e-25)
(5.92853082338516e-07 -1.96984281396649e-07 1.55089175140245e-25)
(7.07711379416807e-07 -2.67376868464124e-07 1.3675176207539e-25)
(8.51988109464145e-07 -3.70335426292103e-07 -3.18468471715078e-24)
(1.03409667573625e-06 -5.213044723123e-07 -9.50274732334927e-25)
(1.26373246449085e-06 -7.41316703204757e-07 -9.41528421080154e-25)
(1.55195707661206e-06 -1.05367858172027e-06 -3.7614596532749e-24)
(1.90098495027076e-06 -1.47139518317294e-06 -1.03683870659101e-24)
(2.30674530685045e-06 -1.94323159963601e-06 -1.15753994145418e-24)
(2.69263789672543e-06 -2.24580832227524e-06 -3.88470735258723e-24)
(2.95483634727956e-06 -1.75068667501524e-06 -1.10677306768813e-24)
(2.69301584796503e-06 4.36126953656077e-07 -9.47308823583283e-25)
(1.83735360510084e-06 4.48714060540175e-06 -3.84111374533871e-24)
(-1.60508595702628e-08 5.62616689940016e-06 -3.329433069712e-25)
(3.74614702203446e-07 6.53311363245983e-06 2.52580860447274e-25)
(-8.92229542462202e-08 5.9289232892568e-06 -3.26308057173483e-25)
(-7.69803372881599e-07 1.79332966074974e-06 6.4100931691328e-25)
(-1.35011968697884e-06 -6.37217324158361e-07 4.6408413248248e-25)
(-1.5618426480373e-06 -1.35403223477064e-06 2.92878987705791e-26)
(-1.56378326957117e-06 -1.17889146420035e-06 -5.16679263641652e-25)
(-1.43227913722353e-06 -7.61912553631226e-07 1.62780957114863e-25)
(-1.2573880066815e-06 -3.57558324326856e-07 1.85191714301342e-25)
(-1.07405496384384e-06 -4.01142744655098e-08 -5.26403160951402e-25)
(-9.03827383161468e-07 1.91893786846443e-07 -3.42405907180946e-25)
(-7.5304724082301e-07 3.5639722000151e-07 1.67593954728405e-24)
(-6.23224853484005e-07 4.72233602729294e-07 1.01218852691344e-24)
(-5.12982276489198e-07 5.54041202407783e-07 1.59353289547988e-25)
(-4.19913867280707e-07 6.12410891294467e-07 1.22153523843996e-24)
(-3.4144015137391e-07 6.54660525953658e-07 -8.10317180239935e-26)
(-2.750856604976e-07 6.85763199235649e-07 7.96307999764839e-25)
(-2.18703899157737e-07 7.0905348749022e-07 8.16550193167033e-25)
(-1.70453494961582e-07 7.26752466934473e-07 3.49517088555138e-25)
(-1.28798537494566e-07 7.40352852254867e-07 8.18677604580451e-25)
(-9.24626952638244e-08 7.50870724738271e-07 -9.52706324537683e-26)
(-6.0365019154444e-08 7.58976510628233e-07 4.25193111863841e-25)
(-3.15946427669398e-08 7.65151775239981e-07 -1.72389377977384e-25)
(-5.35823403118389e-09 7.69701591528778e-07 3.96822544930929e-25)
(1.905721176075e-08 7.72835409792812e-07 5.60300044851771e-25)
(4.22965500609868e-08 7.74689692589652e-07 -6.68050202162466e-26)
(6.49723513618912e-08 7.7531161628594e-07 2.77039783073769e-25)
(8.76897893224967e-08 7.74707323198021e-07 -1.22358922227901e-25)
(1.11058903883875e-07 7.72824159703946e-07 9.81233110652552e-25)
(1.35719439570893e-07 7.69533553115402e-07 9.4566174249175e-26)
(1.62374432854649e-07 7.64632020889327e-07 -5.98559517613698e-25)
(1.9180413071026e-07 7.57803684177803e-07 2.98772619622762e-25)
(2.24913119138866e-07 7.48590142182085e-07 -7.98843743200533e-25)
(2.62759971839235e-07 7.36306567296797e-07 6.8751372470341e-25)
(3.0661109862346e-07 7.19947913627839e-07 7.7342600321184e-25)
(3.57986179351515e-07 6.98007427089076e-07 -6.39340971789468e-25)
(4.18694967896339e-07 6.68244505326243e-07 -2.31935391824222e-25)
(4.90871931080648e-07 6.2732919977894e-07 8.48855415880722e-26)
(5.76969358333661e-07 5.70293978261671e-07 -5.43313540313247e-26)
(6.79536502549394e-07 4.898172564411e-07 2.18018392039494e-25)
(8.00994983995033e-07 3.75247757360735e-07 -1.76860345997954e-24)
(9.42692831153994e-07 2.11832244588076e-07 -7.85904082528815e-25)
(1.10318747973127e-06 -1.95998275805744e-08 -7.74583592543152e-25)
(1.27609508644821e-06 -3.38018760486207e-07 -1.9410280870606e-24)
(1.44011734360964e-06 -7.47557763293775e-07 -7.99635067767755e-25)
(1.56080199612276e-06 -1.17921422596766e-06 -8.84338967532682e-25)
(1.55066285032074e-06 -1.38320099129804e-06 -2.20856888920523e-24)
(1.33877443541293e-06 -6.97679880236836e-07 -8.6635816981376e-25)
(7.72158978080237e-07 1.74988279439012e-06 -7.70593864382845e-25)
(1.19208795356355e-07 5.99029035098117e-06 -2.31103851533596e-24)
(-3.52245765079447e-07 6.65261922227135e-06 -2.13319022478945e-25)
(5.10405511960011e-07 6.73688655114148e-06 4.88756720218318e-25)
(9.95651286339045e-07 6.56212330873579e-06 6.5780858293708e-25)
(4.99832199580549e-07 2.56410089070314e-06 8.9767042684274e-25)
(-2.13278122601886e-07 2.56393950778826e-08 5.24463349768942e-25)
(-7.15363547906158e-07 -8.50568107175314e-07 2.50782708376328e-25)
(-9.80093797267067e-07 -8.0023663466581e-07 2.44716455476658e-25)
(-1.05330027543427e-06 -4.58622852146751e-07 3.91517559854723e-25)
(-1.02021351255485e-06 -9.19945387781673e-08 4.47060746766665e-25)
(-9.31727345225229e-07 2.10638945858302e-07 4.35135318203306e-25)
(-8.2291331142868e-07 4.40289272438664e-07 5.67491151718113e-25)
(-7.11551915239167e-07 6.08495991258268e-07 1.10833304966044e-24)
(-6.0683974577077e-07 7.30522418418543e-07 1.07528201699345e-24)
(-5.12601588957233e-07 8.19121817796864e-07 8.77465153799516e-25)
(-4.29734888389346e-07 8.83945177732299e-07 9.64834038712722e-25)
(-3.57767010008109e-07 9.31950444937111e-07 7.15228912219895e-25)
(-2.95551963841016e-07 9.67972082920053e-07 1.01425302905115e-24)
(-2.41763709062046e-07 9.95371783674513e-07 1.18724360547555e-24)
(-1.950892307742e-07 1.01646527115619e-06 1.15104515303478e-24)
(-1.54318363174407e-07 1.03283218026964e-06 1.18593924419421e-24)
(-1.18381549423093e-07 1.04557312867851e-06 8.87714403747715e-25)
(-8.6335393939008e-08 1.05544900339728e-06 8.54677360622853e-25)
(-5.73575908467284e-08 1.06297379363487e-06 6.52364219260142e-25)
(-3.07161079754791e-08 1.06852651495363e-06 7.90474065070221e-25)
(-5.74158020448271e-09 1.0723400203686e-06 7.79562136902344e-25)
(1.81802626330172e-08 1.0745585260315e-06 6.65979028167758e-25)
(4.16380214427215e-08 1.07525856784549e-06 7.22643698453831e-25)
(6.52071282530794e-08 1.07444583174424e-06 4.17567822948497e-25)
(8.94720529677802e-08 1.07204164227573e-06 4.91153512666887e-25)
(1.15041365091959e-07 1.06791239595791e-06 3.05654868645817e-25)
(1.42573610752095e-07 1.06181679506932e-06 3.09151266634038e-26)
(1.72788815313219e-07 1.0533943614176e-06 -1.04090684814368e-26)
(2.06500471762105e-07 1.04212966269393e-06 -3.74243388941333e-25)
(2.44632952819603e-07 1.02726417703744e-06 -6.32149530625384e-26)
(2.88241236752589e-07 1.00770259370883e-06 5.82490676983059e-26)
(3.3850784165113e-07 9.81838877130057e-07 -3.57368739646289e-26)
(3.96722611187397e-07 9.47368518005742e-07 6.55038418292075e-26)
(4.64182310509189e-07 9.00938676231719e-07 -6.80961892852984e-26)
(5.41999853297927e-07 8.37686070816792e-07 -1.93695810100912e-25)
(6.30605054627693e-07 7.50674644978453e-07 -7.331193832571e-26)
(7.2907257741624e-07 6.30186712899792e-07 -4.68700097870409e-25)
(8.33505326866032e-07 4.63360364958858e-07 -4.6339912138676e-25)
(9.34682020670862e-07 2.34598846834227e-07 -4.56187966700246e-25)
(1.01459455708139e-06 -6.86848013009159e-08 -5.3899043634859e-25)
(1.03804412190267e-06 -4.40262390125274e-07 -4.30122047164692e-25)
(9.5396541399557e-07 -7.96848053226416e-07 -4.70222042348117e-25)
(6.78510393708039e-07 -8.7786725925434e-07 -6.32197771261149e-25)
(1.70191040440694e-07 -3.73295100881668e-08 -4.46101567904843e-25)
(-5.37617062016787e-07 2.51148439407967e-06 -2.97525311838281e-25)
(-1.00586474199204e-06 6.61356120672418e-06 -3.60791679881206e-25)
(-5.0201779791231e-07 6.85485633502163e-06 1.66136237746961e-25)
(5.25307753056888e-07 6.37041237745561e-06 5.56623936672137e-25)
(1.51059347571342e-06 6.53469270603343e-06 1.31728287648502e-24)
(1.16901968952035e-06 2.87137760374548e-06 9.23918703752282e-25)
(4.584385751523e-07 3.46184299742576e-07 4.91492654498357e-25)
(-1.66103706550515e-07 -6.39332865050262e-07 3.32405825365391e-25)
(-5.64730676181895e-07 -7.08753896960239e-07 6.22568106149442e-25)
(-7.58694565771267e-07 -4.52747749608692e-07 4.59720724094657e-25)
(-8.18121450267693e-07 -1.37289237932073e-07 5.1407453119082e-25)
(-7.97438857147654e-07 1.39000834409144e-07 8.34422122478692e-25)
(-7.36222603347514e-07 3.57532584165523e-07 9.21250450168018e-25)
(-6.57884110802692e-07 5.23201909787763e-07 6.32608512521496e-25)
(-5.75859216390612e-07 6.47086764530573e-07 9.30246759069907e-25)
(-4.97213574750684e-07 7.39509696706526e-07 1.06156196079619e-24)
(-4.25087670699234e-07 8.08795867493872e-07 6.76016818171941e-25)
(-3.60565138651954e-07 8.61176407840057e-07 9.86779787655443e-25)
(-3.03551078811948e-07 9.01193500389753e-07 9.53352494846413e-25)
(-2.53414801442121e-07 9.32077058116051e-07 1.14972377704119e-24)
(-2.09311319738712e-07 9.56120440068381e-07 1.37612271657604e-24)
(-1.70350321047547e-07 9.7494697767516e-07 1.19069465695847e-24)
(-1.35672989906887e-07 9.89687064998647e-07 1.2525228703866e-24)
(-1.04488186456074e-07 1.0011628891928e-06 9.39442206480126e-25)
(-7.6068970228439e-08 1.00991915685352e-06 9.36641535142026e-25)
(-4.97546300700245e-08 1.01637897097898e-06 8.6817081703214e-25)
(-2.49403561157226e-08 1.02079240658474e-06 7.63760713173147e-25)
(-1.04998484216322e-09 1.02333166945901e-06 9.1906884781528e-25)
(2.2466827308836e-08 1.02407154036701e-06 8.52976252416834e-25)
(4.614441693935e-08 1.02301860733113e-06 5.93127279876165e-25)
(7.05312113279032e-08 1.02009409033296e-06 1.71574578613783e-25)
(9.61938553642489e-08 1.01514352786933e-06 3.59367612483616e-25)
(1.23730628874545e-07 1.0079045124495e-06 3.09446047621205e-25)
(1.53791419280155e-07 9.97978559236223e-07 -1.70870929283437e-25)
(1.8708456634856e-07 9.84811710634948e-07 -1.16008534316496e-25)
(2.24385307364812e-07 9.67598995429722e-07 -4.37145839341428e-25)
(2.66534168263453e-07 9.45196250703741e-07 -3.11691214383812e-25)
(3.14400705792853e-07 9.15982010169972e-07 2.62083039399527e-25)
(3.68799761176627e-07 8.77663283589375e-07 2.34227327779441e-25)
(4.30313232382452e-07 8.27001058162179e-07 -1.37680393179033e-25)
(4.9900566044571e-07 7.59478178211302e-07 -2.36118491154225e-25)
(5.73738375286207e-07 6.68842533585599e-07 -2.02363535884264e-25)
(6.51317836159359e-07 5.46735052053622e-07 2.55248906955741e-25)
(7.24566395271771e-07 3.82740810040616e-07 -2.20200722481647e-25)
(7.79932482942355e-07 1.65472405641675e-07 -2.09873065351545e-25)
(7.93648933301025e-07 -1.10955551721487e-07 3.17922421170092e-25)
(7.25793235319905e-07 -4.3071688838607e-07 -1.70640565495215e-25)
(5.21368807909479e-07 -7.01191676147144e-07 -1.74797766405368e-25)
(1.10897141777658e-07 -6.63029359168277e-07 3.75305202109498e-25)
(-5.23487276892074e-07 2.83735460078545e-07 -1.63030360309103e-25)
(-1.23448816308405e-06 2.81197589148157e-06 -3.33438656343505e-26)
(-1.55160451968367e-06 6.57216269560958e-06 7.00477242451138e-25)
(-5.29083737314089e-07 6.47825133580298e-06 2.15079677060198e-25)
(4.79420400939143e-07 5.71461990416894e-06 5.1151733043083e-25)
(1.61039147197474e-06 6.14109687059404e-06 1.58044353763247e-24)
(1.39010147223353e-06 2.89268739861792e-06 8.08331546346423e-25)
(7.6610439478675e-07 4.55634968617012e-07 4.55639940396262e-25)
(1.40139838836009e-07 -5.92177153513949e-07 7.60190903607948e-25)
(-2.95461255398029e-07 -7.62015448147869e-07 9.44206999125818e-25)
(-5.43600505498825e-07 -5.8731224232539e-07 4.43789730451842e-25)
(-6.54544758382241e-07 -3.25812857113401e-07 4.77031093858049e-25)
(-6.77806055721302e-07 -8.07291714150634e-08 1.04944531022618e-24)
(-6.51029395909825e-07 1.21816450635077e-07 1.03960386304053e-24)
(-5.9881293512968e-07 2.80872788438995e-07 1.1390624774895e-25)
(-5.36120092123983e-07 4.03444810736363e-07 6.37364493752634e-25)
(-4.71637296965376e-07 4.97337146255671e-07 1.04892848104309e-24)
(-4.09846208905454e-07 5.6935955856369e-07 2.55231358804192e-25)
(-3.52869644352154e-07 6.24892340893113e-07 1.03603223344812e-24)
(-3.01385642621066e-07 6.68017883611095e-07 7.52021943292756e-25)
(-2.55336791009386e-07 7.01760399803635e-07 9.04867369454533e-25)
(-2.14276012200064e-07 7.28310542554965e-07 1.3548007580217e-24)
(-1.77601099795029e-07 7.49265487019947e-07 1.00313057077509e-24)
(-1.4465379972032e-07 7.65771450652013e-07 1.33452618618159e-24)
(-1.14787864563854e-07 7.78659177995057e-07 8.36695574478398e-25)
(-8.73824936229477e-08 7.88528199858802e-07 1.05574919239085e-24)
(-6.18543485496685e-08 7.95794258654316e-07 7.13355787051592e-25)
(-3.76603523664729e-08 8.00740120226324e-07 6.2831475081641e-25)
(-1.42743717892444e-08 8.03546913783658e-07 1.0382556796072e-24)
(8.80760165641813e-09 8.0429940448614e-07 7.49672985038695e-25)
(3.20823735912205e-08 8.02998629470517e-07 7.03783091896457e-25)
(5.60529220815834e-08 7.99569339592077e-07 -1.8793009774424e-25)
(8.12350718916803e-08 7.93840005028061e-07 2.63454362083988e-25)
(1.08164386034221e-07 7.85527440887798e-07 5.15865462440527e-25)
(1.37412298698341e-07 7.74220472278558e-07 -3.83566462168603e-25)
(1.69583801151003e-07 7.59330045062697e-07 1.55942006414506e-25)
(2.05306266256805e-07 7.40039526512122e-07 -7.21167054705591e-25)
(2.45219980205633e-07 7.15192788116609e-07 -6.10968783822514e-25)
(2.8990160612038e-07 6.83199982980582e-07 4.91615203543463e-25)
(3.39758321585211e-07 6.41854288607825e-07 2.49534067095955e-25)
(3.94818198798197e-07 5.88151975775945e-07 -1.03350854749433e-25)
(4.54356339913147e-07 5.18029112236198e-07 -2.26321823230114e-25)
(5.16178150159243e-07 4.26088129927275e-07 -4.04183901898852e-25)
(5.75742701530112e-07 3.05510329546146e-07 5.80718418879867e-25)
(6.2421619809638e-07 1.48412721042494e-07 -1.93448768065988e-26)
(6.46481205264731e-07 -5.24669037107965e-08 -1.01760891127162e-27)
(6.17525827660593e-07 -2.97080185600925e-07 6.68974805302554e-25)