/*--------------------------------*- C++ -*----------------------------------*\
  =========                 |
  \\      /  F ield         | OpenFOAM: The Open Source CFD Toolbox
   \\    /   O peration     | Website:  https://openfoam.org
    \\  /    A nd           | Version:  10
     \\/     M anipulation  |
\*---------------------------------------------------------------------------*/
FoamFile
{
    format      ascii;
    class       volScalarField;
    location    "8.2";
    object      wallHeatFlux;
}
// * * * * * * * * * * * * * * * * * * * * * * * * * * * * * * * * * * * * * //

dimensions      [1 0 -3 0 0 0 0];

internalField   uniform 0;

boundaryField
{
    back
    {
        type            calculated;
        value           uniform 0;
    }
    bottom
    {
        type            calculated;
        value           nonuniform List<scalar> 
50
(
73.1114948650395
73.7768937282727
76.17935753253
78.1240997435635
79.4217753088792
80.2290594522767
80.7144656842954
80.9983962888881
81.1595544036255
81.2481015540489
81.2947574786691
81.318490258824
81.3301062269566
81.3355152322161
81.3379529344054
81.3389650082437
81.3394205941378
81.3395780597594
81.3396118242726
81.3396292632455
81.3396291892618
81.3396257592659
81.339621414073
81.3396256716462
81.3396228437713
81.3396215240307
81.3396265561893
81.3396312654989
81.3396392306638
81.3396470601987
81.3396469823496
81.3396413873543
81.3395723345904
81.3393809976986
81.3388991875327
81.3377491568892
81.3351305845672
81.3293528689388
81.3173271192782
81.2929209671024
81.2454065696088
81.1562783565544
80.9949392743869
80.7119406645093
80.22936044831
79.4249806991803
78.1264243230394
76.1710610794502
73.7567871160739
73.132562007848
)
;
    }
    left
    {
        type            calculated;
        value           uniform 0;
    }
    front
    {
        type            calculated;
        value           uniform 0;
    }
    right
    {
        type            calculated;
        value           uniform 0;
    }
    top
    {
        type            calculated;
        value           uniform 0;
    }
}


// ************************************************************************* //
