/*--------------------------------*- C++ -*----------------------------------*\
  =========                 |
  \\      /  F ield         | OpenFOAM: The Open Source CFD Toolbox
   \\    /   O peration     | Website:  https://openfoam.org
    \\  /    A nd           | Version:  10
     \\/     M anipulation  |
\*---------------------------------------------------------------------------*/
FoamFile
{
    format      ascii;
    class       volScalarField;
    location    "4.8";
    object      alphat;
}
// * * * * * * * * * * * * * * * * * * * * * * * * * * * * * * * * * * * * * //

dimensions      [1 -1 -1 0 0 0 0];

internalField   nonuniform List<scalar> 
2500
(
1.32442834137872e-14
2.57890431226208e-13
1.08826756017858e-12
1.84379932098756e-12
2.43708228220594e-12
2.85540065305845e-12
3.1221519552424e-12
3.2768957526504e-12
3.35905002099337e-12
3.39920592291481e-12
3.41738058743759e-12
3.42503881319441e-12
3.42805783563472e-12
3.42917598360969e-12
3.4295661566315e-12
3.4296943982526e-12
3.42973370867502e-12
3.42974447299683e-12
3.42974661472108e-12
3.4297463896673e-12
3.42974564014257e-12
3.42974488224686e-12
3.42974422572526e-12
3.42974369357196e-12
3.42974329571904e-12
3.42974303926188e-12
3.42974294831515e-12
3.42974298382627e-12
3.42974303816391e-12
3.42974315261077e-12
3.42974315219883e-12
3.42974217049574e-12
3.42973737448524e-12
3.42972027790485e-12
3.42966504915737e-12
3.42949752627457e-12
3.42901576098979e-12
3.42770017648943e-12
3.42429496078151e-12
3.41596851127092e-12
3.39681468359167e-12
3.35556173256796e-12
3.27281321657157e-12
3.11910607838439e-12
2.85629825724038e-12
2.4452178382203e-12
1.8604806654548e-12
1.10916351287586e-12
2.6767802284519e-13
1.41043437084599e-14
1.3077787569547e-12
6.68360454948064e-11
2.880902919253e-10
4.88849074799056e-10
6.47215283688896e-10
7.596092431847e-10
8.31845913974308e-10
8.74122932009486e-10
8.9678251964086e-10
9.07968606194186e-10
9.13082994760135e-10
9.15260081937085e-10
9.1612706386607e-10
9.16451398787926e-10
9.16565710840835e-10
9.16603672243181e-10
9.16615452585356e-10
9.16618744064563e-10
9.16619442455321e-10
9.16619416330399e-10
9.1661922326545e-10
9.1661902166325e-10
9.16618845876315e-10
9.16618703536145e-10
9.16618597088144e-10
9.1661852900763e-10
9.16618506429454e-10
9.1661851651621e-10
9.16618530268909e-10
9.16618559916806e-10
9.16618548692994e-10
9.16618233426181e-10
9.16616770908797e-10
9.16611662141051e-10
9.16595331977873e-10
9.16546237574034e-10
9.16406246876763e-10
9.16027220187732e-10
9.15054683693906e-10
9.12697706950507e-10
9.07324596177511e-10
8.95856840894959e-10
8.73060088265175e-10
8.31083951902192e-10
7.59905381094713e-10
6.49403424473978e-10
4.9322831668141e-10
2.9350948109251e-10
6.93026692308628e-11
1.38863765286532e-12
4.6273484015518e-12
1.19796444446141e-09
4.04568154843701e-07
6.83925996670224e-07
9.02574869345333e-07
1.05737483674076e-06
1.15697282144699e-06
1.21548281975541e-06
1.24702128148203e-06
1.26269867157683e-06
1.26992185309251e-06
1.27302171573017e-06
1.27426656728716e-06
1.27473626073138e-06
1.27490326345829e-06
1.27495924405574e-06
1.27497681489719e-06
1.27498181802458e-06
1.27498294074971e-06
1.27498295983861e-06
1.27498271830242e-06
1.27498245293679e-06
1.27498221894804e-06
1.27498202890115e-06
1.27498188629159e-06
1.27498179478052e-06
1.27498176443856e-06
1.27498177534312e-06
1.27498179159126e-06
1.27498182552857e-06
1.27498179202974e-06
1.2749812986424e-06
1.27497911866307e-06
1.27497161908137e-06
1.27494783330284e-06
1.27487676334608e-06
1.27467526214942e-06
1.27413278000479e-06
1.2727488527719e-06
1.26941453323658e-06
1.26185827501276e-06
1.24582417910642e-06
1.21412090853835e-06
1.15600792192729e-06
1.05776446018423e-06
9.0536652770646e-07
6.89494542050898e-07
4.11459910688773e-07
1.23748723089052e-09
4.86413607974247e-12
8.16281535769026e-12
2.12808921736858e-09
7.18662413972637e-07
1.20750128876416e-06
1.58660005431399e-06
1.85342663771038e-06
2.02456552454058e-06
2.12500139130513e-06
2.17916753764063e-06
2.20613580589491e-06
2.21859003372675e-06
2.22395001946702e-06
2.22610946422444e-06
2.2269271559054e-06
2.22721903855106e-06
2.22731732067078e-06
2.22734834858545e-06
2.22735727300181e-06
2.2273593304875e-06
2.22735941384464e-06
2.22735903216625e-06
2.22735859525011e-06
2.22735820659284e-06
2.22735788972203e-06
2.2273576505269e-06
2.22735749474793e-06
2.22735743897254e-06
2.22735744973377e-06
2.22735747985267e-06
2.22735752904632e-06
2.22735746541359e-06
2.22735661278679e-06
2.22735291162468e-06
2.227340178374e-06
2.22729974206251e-06
2.22717872109756e-06
2.22683502126813e-06
2.22590828462595e-06
2.22354092563182e-06
2.21783086973337e-06
2.20487893277601e-06
2.17737360239782e-06
2.12294242888058e-06
2.02304664709684e-06
1.85382241438827e-06
1.59041636290376e-06
1.21527681885047e-06
7.28301734565335e-07
2.18285743669903e-09
8.48661691064156e-12
1.15640226917571e-11
3.01664253616197e-09
1.01367067058803e-06
1.69405991593547e-06
2.21780655074506e-06
2.5847270127513e-06
2.81949225747583e-06
2.95716735052391e-06
3.0314545508183e-06
3.06849197248375e-06
3.0856307395456e-06
3.09302519731723e-06
3.09601285801914e-06
3.09714781257653e-06
3.09755441533437e-06
3.0976919081395e-06
3.09773556193668e-06
3.09774824840608e-06
3.09775125524291e-06
3.09775145135558e-06
3.09775097812851e-06
3.09775041219585e-06
3.09774990318791e-06
3.09774948597012e-06
3.09774916869611e-06
3.09774895778904e-06
3.09774887133948e-06
3.09774887935205e-06
3.09774892435427e-06
3.09774897127809e-06
3.09774886451776e-06
3.09774768136348e-06
3.09774266317823e-06
3.0977254117704e-06
3.09767057288692e-06
3.09750618220713e-06
3.0970384975214e-06
3.09577534377455e-06
3.09254375337555e-06
3.08473907254634e-06
3.06701657248236e-06
3.02934445716701e-06
2.95472416062313e-06
2.81761866010268e-06
2.58496422274276e-06
2.2218398506454e-06
1.70249148392415e-06
1.02419316986377e-06
3.07734301111265e-09
1.19295808404525e-11
1.46991576141083e-11
3.83579276752089e-09
1.2825504924572e-06
2.13353832383758e-06
2.78464283945614e-06
3.23910101716877e-06
3.52934118940834e-06
3.69947473444353e-06
3.79132991838943e-06
3.83718698975197e-06
3.85844669710463e-06
3.86764017298404e-06
3.87136456803066e-06
3.87278363574901e-06
3.87329375429898e-06
3.87346695154049e-06
3.87352224776198e-06
3.8735384850171e-06
3.87354244336019e-06
3.87354280309873e-06
3.87354228951548e-06
3.87354163975114e-06
3.87354104713275e-06
3.87354055787663e-06
3.87354018251662e-06
3.8735399270632e-06
3.87353980426868e-06
3.87353980198663e-06
3.87353985419568e-06
3.87353989327149e-06
3.87353972404697e-06
3.8735382294817e-06
3.87353207386119e-06
3.87351095608695e-06
3.87344380877316e-06
3.87324227794717e-06
3.87266808196178e-06
3.87111497116947e-06
3.86713623659913e-06
3.85751594619924e-06
3.83564929817886e-06
3.78912945651862e-06
3.69691145752469e-06
3.52731710324734e-06
3.23915085212642e-06
2.78843595460254e-06
2.14167098444029e-06
1.29280450537404e-06
3.89670398299396e-09
1.50777871110274e-11
1.74973589554737e-11
4.56827722815402e-09
1.52103195300158e-06
2.52044117051947e-06
3.28135053853123e-06
3.81091205048861e-06
4.14866049724543e-06
4.34660391025075e-06
4.45354330108422e-06
4.50699888052712e-06
4.53182451711164e-06
4.54258278478693e-06
4.5469517681806e-06
4.54862105676714e-06
4.54922302864953e-06
4.54942819667509e-06
4.54949405082844e-06
4.54951358238085e-06
4.54951847859479e-06
4.54951904924796e-06
4.54951854181317e-06
4.5495178511793e-06
4.54951721000207e-06
4.54951667575162e-06
4.54951626157081e-06
4.54951597303366e-06
4.54951581785708e-06
4.54951579907231e-06
4.54951583998804e-06
4.54951586985229e-06
4.54951561755049e-06
4.5495138208926e-06
4.54950669167095e-06
4.54948230078602e-06
4.5494047763565e-06
4.54917190772635e-06
4.54850761575642e-06
4.5467085373696e-06
4.54209431395468e-06
4.53092618860671e-06
4.50551998542875e-06
4.45143212716358e-06
4.34414373867945e-06
4.14669384232939e-06
3.81085818302884e-06
3.28473572599113e-06
2.52780183921215e-06
1.53040113185975e-06
4.62614318094911e-09
1.78713975738173e-11
1.99246370474171e-11
5.20546702826119e-09
1.72730806494994e-06
2.85310785774928e-06
3.70688118813833e-06
4.29974536807125e-06
4.67750533942125e-06
4.89889585269666e-06
5.01858496392158e-06
5.07848615380011e-06
5.10635014865376e-06
5.11844860560375e-06
5.12337287921954e-06
5.12525913139773e-06
5.12594134062397e-06
5.12617468877342e-06
5.1262499668817e-06
5.12627250237305e-06
5.12627830836732e-06
5.12627913140055e-06
5.12627866375455e-06
5.12627796909855e-06
5.1262773098417e-06
5.12627675430062e-06
5.12627631829466e-06
5.12627600712076e-06
5.12627582589751e-06
5.12627577965901e-06
5.12627579996459e-06
5.12627580678488e-06
5.12627544691609e-06
5.12627338188573e-06
5.12626541886578e-06
5.12623828812987e-06
5.12615213423911e-06
5.12589321065543e-06
5.12515386248356e-06
5.12314936429558e-06
5.11800313919797e-06
5.10553656845119e-06
5.07715624226304e-06
5.01670153330776e-06
4.8967231494309e-06
4.67579904799343e-06
4.29975166460736e-06
3.70991015489413e-06
2.85959178395494e-06
1.73557895917049e-06
5.25885000360374e-09
2.02846572105102e-11
2.19749107668501e-11
5.74560197723832e-09
1.90152640949815e-06
3.13277999514998e-06
4.06364685364342e-06
4.70895525958235e-06
5.11986573081088e-06
5.36071461403908e-06
5.49101454866272e-06
5.55630029777771e-06
5.58671402243939e-06
5.59994299120059e-06
5.60533840257229e-06
5.60740993014726e-06
5.60816116235487e-06
5.60841896879175e-06
5.60850252838343e-06
5.60852775798467e-06
5.60853442387523e-06
5.6085355161495e-06
5.60853512720752e-06
5.60853445779063e-06
5.60853380504734e-06
5.60853324743802e-06
5.60853280349291e-06
5.6085324783524e-06
5.60853227511074e-06
5.6085321942014e-06
5.60853218736661e-06
5.60853215857311e-06
5.60853168563679e-06
5.60852938057159e-06
5.60852070432925e-06
5.60849130775523e-06
5.60839807907341e-06
5.60811781745494e-06
5.60731690794939e-06
5.60514355357789e-06
5.59955907266268e-06
5.58602087167327e-06
5.55518238588644e-06
5.48945991401344e-06
5.35897487876875e-06
5.11860549195622e-06
4.70922825857413e-06
4.0665146107426e-06
3.13853475252531e-06
1.90876749258567e-06
5.79436646510744e-09
2.2317637994698e-11
2.36631006911205e-11
6.19217850366708e-09
2.04529766308872e-06
3.36278501161047e-06
4.35648132433945e-06
5.04449020583882e-06
5.48241394677957e-06
5.73915251286835e-06
5.87814448067989e-06
5.94785857075398e-06
5.98037898395737e-06
5.99454693416788e-06
6.00033594345373e-06
6.00256325244657e-06
6.00337294397996e-06
6.00365164858566e-06
6.00374237111929e-06
6.00376997917007e-06
6.00377743816676e-06
6.00377880695826e-06
6.0037785197063e-06
6.00377789660289e-06
6.0037772686057e-06
6.00377672346466e-06
6.00377628227123e-06
6.00377595026158e-06
6.00377572902702e-06
6.00377561453027e-06
6.00377557126428e-06
6.00377547850017e-06
6.00377490656554e-06
6.00377239373806e-06
6.00376311592405e-06
6.00373187044273e-06
6.00363292877689e-06
6.00333546816136e-06
6.00248488389054e-06
6.00017501295238e-06
5.99423551439411e-06
5.97982775109283e-06
5.94699202586852e-06
5.87698570692481e-06
5.73795185463974e-06
5.48175571602883e-06
5.04524248370747e-06
4.35945348526055e-06
3.36810218398965e-06
2.0517491351998e-06
6.23703239010723e-09
2.39895069189554e-11
2.50190261517778e-11
6.5525005876955e-09
2.16126436519664e-06
3.54786520036822e-06
4.59181764831829e-06
5.31398228821308e-06
5.77354518403885e-06
6.04304482120135e-06
6.18904135638549e-06
6.26233890200764e-06
6.29657220744022e-06
6.31150768699009e-06
6.31762031223162e-06
6.31997653150249e-06
6.32083495043975e-06
6.32113122645549e-06
6.32122804379542e-06
6.32125771711763e-06
6.32126589271257e-06
6.32126753075466e-06
6.32126735655479e-06
6.32126679318289e-06
6.32126620195206e-06
6.32126567914547e-06
6.32126524829532e-06
6.32126491490847e-06
6.3212646796499e-06
6.32126453635039e-06
6.3212644504519e-06
6.32126429703534e-06
6.32126363284316e-06
6.32126092902235e-06
6.32125114981907e-06
6.32121841772948e-06
6.32111493697913e-06
6.32080384592504e-06
6.31991386414466e-06
6.31749553508346e-06
6.31127347816794e-06
6.29617255576806e-06
6.2617428762876e-06
6.18831501299363e-06
6.04245017251913e-06
5.77360516935551e-06
5.31540178174736e-06
4.59516908963301e-06
3.55308903783016e-06
2.16724458866542e-06
6.59459555090751e-09
2.5332594978685e-11
2.60819015219124e-11
6.83634686249754e-09
2.2527160735312e-06
3.69360322700395e-06
4.77699983060588e-06
5.52599452341578e-06
6.00258979584091e-06
6.28216339689002e-06
6.43371003828432e-06
6.50985930590569e-06
6.54546243251509e-06
6.56101504532584e-06
6.56738941660741e-06
6.56985057693128e-06
6.57074895115077e-06
6.5710597599578e-06
6.57116167684762e-06
6.5711931113352e-06
6.571201918608e-06
6.57120380927668e-06
6.57120375278632e-06
6.57120325610086e-06
6.57120270845359e-06
6.57120221398116e-06
6.57120179850979e-06
6.5712014679293e-06
6.57120122235977e-06
6.57120105449764e-06
6.5712009296838e-06
6.57120071966267e-06
6.57119996733245e-06
6.5711970950395e-06
6.57118690455217e-06
6.57115299638689e-06
6.57104597090301e-06
6.570724268264e-06
6.56980360081791e-06
6.56730066763026e-06
6.56085783070727e-06
6.54521451832087e-06
6.50953621747001e-06
6.43342616134674e-06
6.28220439657102e-06
6.00343878586087e-06
5.52822303663966e-06
4.78096943216474e-06
3.69906177455203e-06
2.25854937418361e-06
6.87695741945199e-09
2.6387175041584e-11
2.6895456125071e-11
7.05475904085691e-09
2.32324618281379e-06
3.80592136036959e-06
4.91968924449269e-06
5.68937473920652e-06
6.17913820156768e-06
6.46652601449082e-06
6.62239487633081e-06
6.70077506205462e-06
6.73745523452874e-06
6.75349576760216e-06
6.76007832517362e-06
6.76262349860948e-06
6.76355409258286e-06
6.76387672107187e-06
6.76398283251825e-06
6.76401574150923e-06
6.76402509339943e-06
6.76402721381997e-06
6.76402727244207e-06
6.76402684386754e-06
6.76402634236417e-06
6.76402587905102e-06
6.76402548185814e-06
6.76402515711526e-06
6.76402490462507e-06
6.76402471639254e-06
6.76402455723831e-06
6.76402429605285e-06
6.76402346442472e-06
6.76402044828683e-06
6.76400992669442e-06
6.76397510423656e-06
6.76386536018749e-06
6.76353554800653e-06
6.76259142529323e-06
6.76002373422236e-06
6.75341164455701e-06
6.73735196215032e-06
6.70071415147297e-06
6.62254154030282e-06
6.4671989282847e-06
6.18080097503491e-06
5.69249683081187e-06
4.92445228343321e-06
3.81188178034507e-06
2.32921395547818e-06
7.09505428666212e-09
2.71969530154655e-11
2.75038646650087e-11
7.21900719845462e-09
2.3764615374057e-06
3.8906632643692e-06
5.02737137645601e-06
5.81271931787457e-06
6.31248044456671e-06
6.60582263000128e-06
6.76499890776128e-06
6.84509432550802e-06
6.88260690632826e-06
6.89902667216981e-06
6.90577202955963e-06
6.90838333438542e-06
6.90933947531342e-06
6.90967155535723e-06
6.90978105805821e-06
6.90981517937617e-06
6.90982499099515e-06
6.90982731420422e-06
6.90982747993774e-06
6.90982711672655e-06
6.90982666074201e-06
6.90982622901241e-06
6.90982585135315e-06
6.9098255345432e-06
6.90982527820563e-06
6.90982507386316e-06
6.9098248857083e-06
6.90982458027496e-06
6.90982368055679e-06
6.90982054536821e-06
6.90980976270032e-06
6.90977424254937e-06
6.90966245234444e-06
6.90932655993544e-06
6.90836485106984e-06
6.90574854523137e-06
6.89900920764843e-06
6.88263608005583e-06
6.84527522000875e-06
6.76554729976475e-06
6.60709613517709e-06
6.31493994860324e-06
5.81676096683701e-06
5.03302848542412e-06
3.89730981735803e-06
2.38277559166342e-06
7.25991621856267e-09
2.78053964793587e-11
2.79486772302098e-11
7.33979041649983e-09
2.41575886723876e-06
3.95327546587234e-06
5.10698177623429e-06
5.9039670248703e-06
6.41118161831544e-06
6.70898045975137e-06
6.87064330192432e-06
6.95203463856954e-06
6.99017952343914e-06
7.00688902987888e-06
7.01375954272339e-06
7.01642202714688e-06
7.01739808398466e-06
7.0177375945994e-06
7.01784979215825e-06
7.01788489221219e-06
7.01789508372468e-06
7.01789758145938e-06
7.01789784364746e-06
7.01789753995284e-06
7.01789712667406e-06
7.01789672527754e-06
7.017896367209e-06
7.01789605967852e-06
7.01789580221596e-06
7.01789558598237e-06
7.01789537457564e-06
7.01789503266057e-06
7.01789407691178e-06
7.0178908462428e-06
7.0178798623005e-06
7.01784382007508e-06
7.0177305193225e-06
7.01739015616572e-06
7.01641551761163e-06
7.0137634271066e-06
7.00693029102376e-06
6.99032581846809e-06
6.95243076505364e-06
6.87155298154282e-06
6.71080267849379e-06
6.41438677087187e-06
5.90890208206034e-06
5.11356135365066e-06
3.96070610942222e-06
2.42255344260314e-06
7.38194942548896e-09
2.82530250496586e-11
2.82668168059011e-11
7.42669900784999e-09
2.44417455826745e-06
3.99859652859586e-06
5.16466054221946e-06
5.97013346492726e-06
6.48280466851779e-06
6.78388004003178e-06
6.94737961486718e-06
7.0297331272196e-06
7.06835008616365e-06
7.08527719781282e-06
7.09224230238177e-06
7.09494373007116e-06
7.09593505302878e-06
7.09628030738935e-06
7.0963946100124e-06
7.09643048608308e-06
7.09644098482547e-06
7.09644363039717e-06
7.09644397802265e-06
7.09644372502755e-06
7.0964433503275e-06
7.09644297700434e-06
7.09644263782199e-06
7.09644234038088e-06
7.09644208417076e-06
7.09644186007846e-06
7.09644163119057e-06
7.09644126074631e-06
7.09644026086708e-06
7.09643695614637e-06
7.09642582080676e-06
7.09638939595072e-06
7.09627500204178e-06
7.09593141601545e-06
7.0949474577155e-06
7.09226954371948e-06
7.08536862428627e-06
7.06859675814583e-06
7.03031478939059e-06
6.94860355625976e-06
6.78618599333316e-06
6.48668020551275e-06
5.97589514728447e-06
5.17213039693709e-06
4.00683270008813e-06
2.45151193129959e-06
7.47045986679303e-09
2.85756857987857e-11
2.8489557222724e-11
7.48792548651974e-09
2.46430425689523e-06
4.0307482702818e-06
5.20562872066701e-06
6.0171793209586e-06
6.5337738086511e-06
6.83721565660362e-06
7.00204837161633e-06
7.08510398622382e-06
7.12406739287112e-06
7.14115517504604e-06
7.14819057343161e-06
7.15092113987448e-06
7.15192397050397e-06
7.15227359101281e-06
7.15238951045931e-06
7.15242599116692e-06
7.15243673339873e-06
7.15243949975243e-06
7.15243991869738e-06
7.1524397122083e-06
7.15243937157908e-06
7.15243902359102e-06
7.15243870216051e-06
7.15243841523218e-06
7.15243816229138e-06
7.15243793401818e-06
7.15243769309236e-06
7.15243730168688e-06
7.15243626871266e-06
7.15243290866989e-06
7.15242166254221e-06
7.15238496345227e-06
7.15226979460153e-06
7.15192393160265e-06
7.15093338851894e-06
7.14823720687551e-06
7.1412882680785e-06
7.12439766122608e-06
7.08584094338038e-06
7.00353740656504e-06
6.83993431397563e-06
6.53823055564914e-06
6.02367389767191e-06
5.21391255576893e-06
4.03975217182201e-06
2.47218850405551e-06
7.53340236685258e-09
2.88037168105136e-11
2.86423100053115e-11
7.53018119502067e-09
2.47828085149539e-06
4.05311217471086e-06
5.23416667429847e-06
6.04999078590685e-06
6.56935614206018e-06
6.87447736013592e-06
7.04026103348083e-06
7.12382025145072e-06
7.16303362536477e-06
7.18023805816124e-06
7.18732482799095e-06
7.19007683801205e-06
7.19108820100293e-06
7.1914410862156e-06
7.19155822714765e-06
7.19159517115272e-06
7.19160610346384e-06
7.19160896610322e-06
7.19160944479667e-06
7.19160927855287e-06
7.19160896750494e-06
7.19160864204551e-06
7.19160833708194e-06
7.19160806086072e-06
7.1916078128816e-06
7.19160758367851e-06
7.19160733561358e-06
7.19160693009457e-06
7.19160587380069e-06
7.19160247427865e-06
7.19159114969113e-06
7.19155425892538e-06
7.19143855264081e-06
7.19109111405494e-06
7.19009601218819e-06
7.18738716518237e-06
7.1804048808985e-06
7.16343170172733e-06
7.12468370145477e-06
7.04196742505431e-06
6.87753764167592e-06
6.57430037389701e-06
6.05711103119991e-06
5.243161610284e-06
4.06280659848245e-06
2.4866749331803e-06
7.57731458712464e-09
2.89618185673212e-11
2.87449658988553e-11
7.5587622718001e-09
2.48779536933826e-06
4.06836839642906e-06
5.25366747080964e-06
6.07244270946712e-06
6.59373061215232e-06
6.900022956563e-06
7.06647338055272e-06
7.1503877262883e-06
7.18977844462484e-06
7.20706616853017e-06
7.21418986587915e-06
7.21695739983771e-06
7.21797498693468e-06
7.21833027406828e-06
7.21844832307804e-06
7.21848561643356e-06
7.21849669524727e-06
7.21849963393549e-06
7.21850016143052e-06
7.21850002915964e-06
7.21849974350368e-06
7.21849943793056e-06
7.21849914816389e-06
7.21849888269942e-06
7.21849864106664e-06
7.2184984136972e-06
7.21849816272045e-06
7.21849774900318e-06
7.2184966777135e-06
7.2184932517185e-06
7.21848187386751e-06
7.21844485311601e-06
7.21832878318139e-06
7.21798027841483e-06
7.21698208691698e-06
7.21426463909848e-06
7.20725966689598e-06
7.19023021249504e-06
7.1513516688586e-06
7.06835340197328e-06
6.90335831063548e-06
6.59907162294243e-06
6.08007942755704e-06
5.26325985937039e-06
4.07865542496315e-06
2.4966379026635e-06
7.60738420090841e-09
2.90694158799099e-11
2.88125710793446e-11
7.57770727413049e-09
2.49414479284289e-06
4.07857391432233e-06
5.26673717416501e-06
6.08751351803007e-06
6.61011171042761e-06
6.91720651464049e-06
7.08411639801674e-06
7.16827693433322e-06
7.20779137303536e-06
7.22513758780482e-06
7.2322873969005e-06
7.23506598783791e-06
7.23608804265289e-06
7.23644506901957e-06
7.23656378263593e-06
7.23660133546279e-06
7.23661252583524e-06
7.23661552414922e-06
7.23661609100564e-06
7.23661598705541e-06
7.23661572310718e-06
7.23661543510611e-06
7.2366151594035e-06
7.23661490469558e-06
7.23661467054403e-06
7.23661444731727e-06
7.23661419698038e-06
7.23661378002677e-06
7.2366127006319e-06
7.23660925860705e-06
7.23659784680772e-06
7.23656074147003e-06
7.23644443294288e-06
7.23609522536903e-06
7.23509498957767e-06
7.23237183247641e-06
7.22535175852057e-06
7.20828476061869e-06
7.16931896521248e-06
7.08613194067787e-06
6.9207579788165e-06
6.61576722132008e-06
6.09556426722795e-06
5.27681514911358e-06
4.08935031752895e-06
2.5033642766548e-06
7.62759774286657e-09
2.91413095045846e-11
2.88561448547175e-11
7.58999738257611e-09
2.49829280838872e-06
4.08525921303875e-06
5.27531716155521e-06
6.09742439435659e-06
6.62089887049588e-06
6.92853344810123e-06
7.09575426680822e-06
7.18008247467091e-06
7.2196817365541e-06
7.23706833106288e-06
7.24423629671901e-06
7.24702263407881e-06
7.24804784422829e-06
7.24840611012638e-06
7.24852530276253e-06
7.24856304557399e-06
7.24857431979579e-06
7.24857736445339e-06
7.24857796318378e-06
7.24857788278972e-06
7.24857763748528e-06
7.24857736510917e-06
7.24857710250499e-06
7.24857685852589e-06
7.24857663276665e-06
7.24857641556132e-06
7.24857616876143e-06
7.24857575261753e-06
7.24857467067782e-06
7.24857122085114e-06
7.24855978973923e-06
7.24852263291115e-06
7.24840617483862e-06
7.24805652045259e-06
7.24705497375427e-06
7.24432813303586e-06
7.23729826952748e-06
7.22020684403305e-06
7.18118411024093e-06
7.09787361249515e-06
6.93225132954277e-06
6.62679832927015e-06
6.10579925357126e-06
5.28577943379538e-06
4.09642769512736e-06
2.50781833662097e-06
7.64092758794836e-09
2.91884465538057e-11
2.88834990209598e-11
7.59776232779371e-09
2.50093269480171e-06
4.08952747045017e-06
5.28080902883885e-06
6.10378112112689e-06
6.62782864961994e-06
6.93581853068176e-06
7.10324541826762e-06
7.18768553923748e-06
7.22734183223301e-06
7.24475578162758e-06
7.25193614333387e-06
7.25472781234449e-06
7.25575521301312e-06
7.25611434786594e-06
7.25623388047204e-06
7.25627176053311e-06
7.2562830970346e-06
7.25628617746103e-06
7.25628680194869e-06
7.2562867416332e-06
7.25628651253981e-06
7.25628625422367e-06
7.25628600394966e-06
7.25628577068716e-06
7.2562855540662e-06
7.25628534440384e-06
7.25628510348339e-06
7.25628469140269e-06
7.25628361135176e-06
7.25628016015719e-06
7.25626872081769e-06
7.2562315367081e-06
7.25611499263728e-06
7.25576507166691e-06
7.2547627267268e-06
7.25203361270965e-06
7.24499764872376e-06
7.22789088790409e-06
7.1888322020133e-06
7.10544338222586e-06
6.93966299629939e-06
6.63391477639494e-06
6.11240586191631e-06
5.29157021846612e-06
4.10100392052971e-06
2.51070115073548e-06
7.64952428500742e-09
2.92186888480561e-11
2.88999704761302e-11
7.602467828257e-09
2.50254503142327e-06
4.09214529582185e-06
5.28418870979529e-06
6.10770365246075e-06
6.63211379914341e-06
6.94033038342487e-06
7.10788988358586e-06
7.19240266437638e-06
7.23209631650575e-06
7.24952834831882e-06
7.25671698016063e-06
7.25951224001954e-06
7.26054113076199e-06
7.26090086339315e-06
7.26102063326244e-06
7.26105861117343e-06
7.26106999356809e-06
7.26107310147222e-06
7.26107374701313e-06
7.26107370400592e-06
7.26107348917368e-06
7.26107324367366e-06
7.26107300511348e-06
7.26107278255582e-06
7.26107257565778e-06
7.26107237473819e-06
7.26107214154153e-06
7.26107173608604e-06
7.26107066139913e-06
7.26106721384589e-06
7.26105577476939e-06
7.26101858149805e-06
7.26090199796502e-06
7.26055194023006e-06
7.25954916194197e-06
7.25681876963181e-06
7.24977929033744e-06
7.23266353197946e-06
7.19358346092826e-06
7.11014755426162e-06
6.9442713126194e-06
6.63834287960749e-06
6.11652096202414e-06
5.29518196047963e-06
4.1038627909388e-06
2.51250534211961e-06
7.65489254835382e-09
2.92375013191075e-11
2.89090206325364e-11
7.6050708670718e-09
2.50344589740201e-06
4.0936184793586e-06
5.28610176877384e-06
6.10993437791299e-06
6.63455955761455e-06
6.94291238933658e-06
7.11055267890395e-06
7.19511034432961e-06
7.2348273854885e-06
7.25227089020127e-06
7.25946483940296e-06
7.26226243875516e-06
7.26329231353727e-06
7.26365244688982e-06
7.26377237885574e-06
7.26381042553608e-06
7.26382184163818e-06
7.26382497082373e-06
7.26382563381988e-06
7.26382560584972e-06
7.2638254037067e-06
7.26382517005017e-06
7.26382494272334e-06
7.26382473085739e-06
7.26382453413858e-06
7.26382434288988e-06
7.26382411883896e-06
7.26382372198412e-06
7.26382265535563e-06
7.26381921536196e-06
7.26380778325889e-06
7.26377059516889e-06
7.26365400858529e-06
7.26330391386276e-06
7.26230097763126e-06
7.25957004582899e-06
7.25252894405276e-06
7.23540877439349e-06
7.19631775718519e-06
7.11285696959239e-06
6.946928840756e-06
6.64090101353087e-06
6.11890386463849e-06
5.29727955729636e-06
4.10552903447623e-06
2.51356117930688e-06
7.65803829598013e-09
2.92485193970595e-11
2.89126805479934e-11
7.60613690111357e-09
2.50382349190443e-06
4.09424955786618e-06
5.28693573673727e-06
6.11092037106458e-06
6.63565212677182e-06
6.94407480862762e-06
7.11175789809753e-06
7.19634013164537e-06
7.23607035283521e-06
7.25352050881634e-06
7.26071762651513e-06
7.26351665824678e-06
7.26454715315088e-06
7.26490754809311e-06
7.26502759138051e-06
7.26506568914638e-06
7.26507713312125e-06
7.26508028173131e-06
7.26508096167379e-06
7.2650809484755e-06
7.26508075883519e-06
7.26508053701514e-06
7.26508032088945e-06
7.26508011964605e-06
7.26507993299897e-06
7.26507975126953e-06
7.26507953617796e-06
7.26507914773889e-06
7.26507808912342e-06
7.2650746572316e-06
7.26506323466765e-06
7.26502606067821e-06
7.26490949891423e-06
7.26455944902045e-06
7.26355658309866e-06
7.26082571764676e-06
7.25378451923934e-06
7.23666356985003e-06
7.19756973724388e-06
7.11410111715536e-06
6.94815444931762e-06
6.6420879132771e-06
6.12001814416069e-06
5.29826986804338e-06
4.10632459970313e-06
2.51407191778443e-06
7.65958077466293e-09
2.92539778070388e-11
2.89118337242546e-11
7.60591450122193e-09
2.50376220023971e-06
4.09417618332782e-06
5.28686875713636e-06
6.11086882441832e-06
6.63561826780575e-06
6.94405676389735e-06
7.1117519759527e-06
7.19634246600509e-06
7.23607777052043e-06
7.25353080026568e-06
7.26072942349793e-06
7.26352919600011e-06
7.26456003961841e-06
7.26492059655601e-06
7.26504071808232e-06
7.26507885813435e-06
7.2650903294206e-06
7.26509349936742e-06
7.26509419845356e-06
7.26509420154167e-06
7.26509402554147e-06
7.26509381638376e-06
7.26509361178597e-06
7.26509342098213e-06
7.26509324370934e-06
7.26509307028589e-06
7.26509286241861e-06
7.26509248016149e-06
7.26509142695788e-06
7.26508800067637e-06
7.26507658680493e-06
7.26503943230542e-06
7.26492291998075e-06
7.26457299379186e-06
7.26357042103997e-06
7.26084020629839e-06
7.25380035308321e-06
7.23668197922391e-06
7.19759268163309e-06
7.11413133840479e-06
6.94819517579098e-06
6.64214200262374e-06
6.12008657135333e-06
5.29834965927634e-06
4.10640642815596e-06
2.51413755561315e-06
7.65982776381925e-09
2.92549977131498e-11
2.8906371466343e-11
7.60437719723974e-09
2.50325525871708e-06
4.09339036324934e-06
5.28589368869098e-06
6.10977442833969e-06
6.634454783182e-06
6.94285699312986e-06
7.11053517105361e-06
7.19511865458473e-06
7.2348516118707e-06
7.25230410904531e-06
7.25950276627112e-06
7.26230267845408e-06
7.26333363829624e-06
7.26369427237313e-06
7.26381444339334e-06
7.26385261720123e-06
7.26386411413887e-06
7.26386730592917e-06
7.26386802494528e-06
7.26386804483486e-06
7.26386788282271e-06
7.26386768654076e-06
7.26386749344388e-06
7.2638673127958e-06
7.26386714435846e-06
7.26386697844078e-06
7.26386677675046e-06
7.26386639943063e-06
7.26386535037901e-06
7.26386192906296e-06
7.2638505257988e-06
7.26381340091909e-06
7.26369697202739e-06
7.26334726863067e-06
7.26234525643313e-06
7.25961637238535e-06
7.25257950088747e-06
7.23546742707528e-06
7.19639065833766e-06
7.11295271757329e-06
6.94705753520202e-06
6.64107154597394e-06
6.11911916897692e-06
5.2975301668421e-06
4.10578564023861e-06
2.5137665679686e-06
7.65881036400053e-09
2.92517049612487e-11
2.8895214637245e-11
7.60122706828195e-09
2.50220496201608e-06
4.09173840107026e-06
5.28381779970084e-06
6.10741903396319e-06
6.63192826217991e-06
6.94023370634866e-06
7.10786152516925e-06
7.1924209334383e-06
7.23214336077727e-06
7.24959165588624e-06
7.2567887989323e-06
7.25958823324609e-06
7.26061907526629e-06
7.26097970178859e-06
7.26109989287892e-06
7.26113809053982e-06
7.26114960984749e-06
7.26115282234133e-06
7.26115356070205e-06
7.26115359690336e-06
7.26115344845095e-06
7.26115326468321e-06
7.26115308275325e-06
7.26115291193023e-06
7.26115275200773e-06
7.26115259329977e-06
7.2611523975376e-06
7.26115202503333e-06
7.26115098040922e-06
7.2611475656001e-06
7.26113617836374e-06
7.26109909992426e-06
7.26098280330302e-06
7.26063345741449e-06
7.2596323598534e-06
7.25690569259565e-06
7.24987390908711e-06
7.23277287614767e-06
7.19371870566645e-06
7.11032427960178e-06
6.94450773673208e-06
6.63865488244396e-06
6.11691345655234e-06
5.2956373289757e-06
4.10432770105828e-06
2.51287638485011e-06
7.65628853057904e-09
2.92432849041836e-11
2.88761312185376e-11
7.59584947577126e-09
2.50041028851451e-06