/*--------------------------------*- C++ -*----------------------------------*\
  =========                 |
  \\      /  F ield         | OpenFOAM: The Open Source CFD Toolbox
   \\    /   O peration     | Website:  https://openfoam.org
    \\  /    A nd           | Version:  10
     \\/     M anipulation  |
\*---------------------------------------------------------------------------*/
FoamFile
{
    format      ascii;
    class       volScalarField;
    location    "4.8";
    object      h;
}
// * * * * * * * * * * * * * * * * * * * * * * * * * * * * * * * * * * * * * //

dimensions      [0 2 -2 0 0 0 0];

internalField   nonuniform List<scalar> 
2500
(
6695.05492469799
6681.69552400355
6664.19412471163
6653.76340826222
6648.4393144775
6645.86373895249
6644.66385099322
6644.12792834967
6643.89996184677
6643.80867439389
6643.7726330062
6643.75903236557
6643.75397312709
6643.75146268644
6643.74993615792
6643.74860192803
6643.74791469978
6643.74712351117
6643.74624559857
6643.74562410568
6643.74508178591
6643.74459783638
6643.74419241677
6643.74394850461
6643.74369545644
6643.74346192803
6643.74337191211
6643.74331461776
6643.74331037213
6643.74339285585
6643.74354083208
6643.74382241631
6643.74420147322
6643.74468611373
6643.7452326086
6643.74595624027
6643.7471348819
6643.74934650438
6643.75533624692
6643.77022131694
6643.8087854241
6643.90619922491
6644.14209408522
6644.68651863693
6645.89007523367
6648.44827458069
6653.74045412815
6664.19883516282
6681.89883871891
6694.91775621418
5456.86131459522
5404.43805402881
5355.05557574517
5325.30467195226
5309.3140644399
5301.1209361846
5297.08122438871
5295.18067983017
5294.33434585028
5293.97913142639
5293.83788515996
5293.78475317023
5293.76576204882
5293.75895767885
5293.75636902922
5293.75513187638
5293.75456808029
5293.75408122151
5293.75357681465
5293.75318448017
5293.75281847737
5293.75245733773
5293.75214163605
5293.75194741733
5293.75177979129
5293.75161599441
5293.75154163781
5293.75148485466
5293.75142439344
5293.75145239124
5293.7515193572
5293.75162816424
5293.75194205891
5293.75239491221
5293.75291453
5293.75396719514
5293.7567799462
5293.76457307641
5293.78652867205
5293.84548206838
5293.99761070987
5294.37119589124
5295.24109336819
5297.16113451999
5301.19420504322
5309.32629306698
5325.2348158255
5355.11717062511
5405.20166260793
5456.70281391094
4285.35876013763
4207.86930821661
4143.68271184291
4105.82711629205
4085.59338404855
4075.24661885202
4070.14272323453
4067.73517639954
4066.65853529395
4066.20408251569
4066.02280464394
4065.95448705445
4065.9301486353
4065.92177757491
4065.91892181866
4065.91787668862
4065.91749573984
4065.91725311211
4065.91701920549
4065.91682373124
4065.91661845552
4065.91638581439
4065.91616697804
4065.91603253503
4065.91593590131
4065.91583557536
4065.91578900348
4065.91574624479
4065.91567498391
4065.91566712158
4065.91566784973
4065.91565633437
4065.915896707
4065.91629063208
4065.91671145631
4065.91778276223
4065.92108381485
4065.93078255728
4065.95837461305
4066.03314357871
4066.22631649896
4066.70012496792
4067.80126461936
4070.22778496679
4075.32143973512
4085.60556448072
4105.78648877939
4143.9328893976
4209.31618786385
4286.80785845864
3348.97356048625
3269.9623362126
3212.15803815197
3179.3274946427
3162.4069325134
3154.04544503364
3150.03713647923
3148.18713225448
3147.37286462142
3147.03302154641
3146.89862137268
3146.84832608522
3146.83055938169
3146.82456060563
3146.82260450506
3146.82198316731
3146.82181055476
3146.82173092047
3146.82165620185
3146.82158577176
3146.82149338575
3146.82136407587
3146.8212274052
3146.82114216637
3146.82109385668
3146.8210419319
3146.82101840878
3146.82099361437
3146.8209417412
3146.82092488085
3146.82090229593
3146.8208365505
3146.82098029216
3146.82123706755
3146.82146471161
3146.82213220703
3146.82435433536
3146.83112068504
3146.85071287103
3146.90461321191
3147.04577217775
3147.39694479286
3148.2262262337
3150.08912897292
3154.09479846646
3162.42981986677
3179.37256668622
3212.604424407
3271.80399525395
3352.13151492533
2697.38829835126
2633.30267177495
2590.91270031534
2567.73319845355
2556.21323317327
2550.71045490069
2548.14470213286
2546.983849442
2546.47951611833
2546.27065317253
2546.18840188307
2546.15769863418
2546.14689329156
2546.14328000912
2546.14213897137
2546.14182867239
2546.14178215015
2546.14177861365
2546.14177462913
2546.14176519677
2546.14173841727
2546.14167968952
2546.14160310095
2546.1415543002
2546.14153623785
2546.14151713366
2546.14150841753
2546.14149666328
2546.14146784985
2546.14145314342
2546.14142681695
2546.14135582292
2546.14142449352
2546.14155059552
2546.14164017274
2546.14200202521
2546.14326668641
2546.14719934995
2546.15875654193
2546.1908914626
2546.27584462189
2546.48938946723
2547.00008079707
2548.16647951172
2550.73128464559
2556.22786183724
2567.8019539947
2591.37062822911
2635.06652189827
2701.21831125771
2294.19871442104
2250.19338571685
2223.47726683609
2209.3838600684
2202.61199721962
2199.47769494354
2198.05337896676
2197.42030399939
2197.14812890315
2197.03596401563
2196.99184345495
2196.97536511879
2196.96957076263
2196.9676446603
2196.96706243477
2196.96693733118
2196.96694094127
2196.96695753013
2196.96696853398
2196.96697175308
2196.96697200033
2196.96695498593
2196.96691583624
2196.96689096883
2196.96688850689
2196.96688636805
2196.96688464105
2196.96687966747
2196.96686689295
2196.96685671084
2196.96683532127
2196.96678171053
2196.96680745183
2196.96685372512
2196.96687083305
2196.96704915808
2196.96769454684
2196.96971477772
2196.97573076972
2196.99258185248
2197.03739256901
2197.15080738991
2197.42459362224
2198.05855347423
2199.4808018216
2202.61363317233
2209.43282401442
2223.82204430546
2251.56087709406
2297.64665666583
2068.72162025958
2042.21648366466
2027.28273802753
2019.66448666109
2016.11437880751
2014.51780927077
2013.80924588905
2013.49929278517
2013.36716820292
2013.31287293771
2013.29149450003
2013.28348974545
2013.28067233804
2013.2797409174
2013.27947583174
2013.2794340085
2013.2794458589
2013.27946360547
2013.27947717641
2013.27948097563
2013.27948539437
2013.27948458684
2013.27946678879
2013.27945679725
2013.27946072466
2013.27946310991
2013.27946255191
2013.27946064538
2013.27945569793
2013.27944952896
2013.27943543873
2013.27940214811
2013.27940876463
2013.27941909655
2013.27941617641
2013.27949935244
2013.27979646205
2013.28074025694
2013.28358853808
2013.2916057116
2013.3129872717
2013.36730976898
2013.49929770982
2013.80833746854
2014.51407789398
2016.10833683842
2019.68644868459
2027.49192732751
2043.11552033928
2071.26557383801
1953.28102831351
1938.94721598247
1931.3838167435
1927.64430282605
1925.94926257539
1925.20655490431
1924.88404100741
1924.74499851406
1924.68614945813
1924.6619987865
1924.6524665802
1924.64888386421
1924.64762047642
1924.64720522816
1924.64709568535
1924.64708510586
1924.64709381961
1924.6471061669
1924.64711598008
1924.64712047925
1924.64712317579
1924.64712389544
1924.64711814643
1924.64711540547
1924.64711934332
1924.64712173754
1924.64712205444
1924.64712130909
1924.64711906653
1924.64711571655
1924.64710776775
1924.64708986668
1924.64708998872
1924.64709029078
1924.64708510212
1924.64711960783
1924.64724550258
1924.64765448692
1924.64890425408
1924.65243179446
1924.66184344301
1924.68578228566
1924.74417468202
1924.8821020187
1925.20205202199
1925.94166431871
1927.64900601674
1931.49092541076
1939.46441774767
1954.89806089701
1898.59718541512
1891.52016287775
1887.994803032
1886.30219725592
1885.5539763358
1885.23376259337
1885.09748066608
1885.03951189443
1885.01512729664
1885.0051238143
1885.00116236427
1884.99966671124
1884.99913804471
1884.99896609082
1884.99892380168
1884.99892194109
1884.99892747771
1884.9989345056
1884.99894019987
1884.99894335185
1884.99894472853
1884.99894511455
1884.9989441124
1884.9989444234
1884.99894655651
1884.99894798875
1884.99894831498
1884.99894805274
1884.99894705919
1884.99894529803
1884.99894133485
1884.99893341271
1884.99893218726
1884.99893110389
1884.99892768215
1884.99893965127
1884.99898934042
1884.99915586723
1884.99967058013
1885.00112501027
1885.00499895719
1885.01484111837
1885.03888794764
1885.09606861936
1885.23054140687
1885.54798946861
1886.29999507498
1888.042198763
1891.78639950447
1899.50987829518
1874.41995938606
1871.18938914264
1869.65894576104
1868.94418620794
1868.63536646318
1868.50598964094
1868.4519416153
1868.42923949271
1868.41974216115
1868.41584493642
1868.41429573006
1868.41370800355
1868.41349973397
1868.41343284179
1868.41341747824
1868.41341768443
1868.41342067211
1868.41342418664
1868.41342707456
1868.41342885173
1868.41342975525
1868.41343013247
1868.41343015999
1868.41343069342
1868.41343170212
1868.41343239131
1868.41343256352
1868.41343244474
1868.41343201152
1868.41343117617
1868.41342936927
1868.41342602803
1868.41342499334
1868.4134241235
1868.41342239585
1868.41342610482
1868.41344446073
1868.41350895517
1868.41370981447
1868.41427720149
1868.41578333644
1868.41959800377
1868.42891496372
1868.45117519302
1868.50415035487
1868.63161356155
1868.94084022858
1869.67722177422
1871.3140594516
1874.88683798631
1864.36929780347
1862.99224709216
1862.36760423057
1862.08339709385
1861.96315349373
1861.91374314735
1861.89345356195
1861.88503185198
1861.88152650724
1861.88008721143
1861.87951278538
1861.87929381295
1861.87921603379
1861.87919142254
1861.87918614313
1861.87918652123
1861.87918794579
1861.87918954184
1861.87919086928
1861.87919174878
1861.87919226944
1861.87919253506
1861.87919268282
1861.87919300855
1861.87919344317
1861.87919373525
1861.87919380631
1861.8791937541
1861.87919357006
1861.87919319237
1861.87919242656
1861.8791910859
1861.87919049402
1861.8791899878
1861.87918926653
1861.87919024564
1861.8791966491
1861.8792205561
1861.87929535616
1861.87950633021
1861.8800637228
1861.88146887366
1861.88489374102
1861.89310105756
1861.91283171067
1861.96112931889
1862.080904011
1862.37368612478
1863.04602340213
1864.58897771421
1860.41624901932
1859.86375196629
1859.62226301983
1859.51506009415
1859.47057592838
1859.45261469502
1859.44535533572
1859.44237583976
1859.44114165083
1859.44063451983
1859.44043132277
1859.44035350531
1859.44032580739
1859.4403171708
1859.44031544229
1859.44031568642
1859.44031630536
1859.44031697583
1859.44031753951
1859.44031793362
1859.44031819196
1859.44031834063
1859.44031844037
1859.44031859575
1859.44031876959
1859.44031888306
1859.44031890834
1859.44031888925
1859.44031881301
1859.44031864879
1859.44031834378
1859.44031783323
1859.44031754894
1859.440317299
1859.44031703667
1859.44031723802
1859.44031935879
1859.4403278797
1859.44035461022
1859.44042981392
1859.44062737618
1859.44112249075
1859.44232503338
1859.44521081831
1859.45220710251
1859.46959911769
1859.51361577042
1859.62393034111
1859.88532840135
1860.51240472264
1858.93735976056
1858.72733535827
1858.63836668983
1858.59977391793
1858.58404575692
1858.577795832
1858.57530640179
1858.57429544934
1858.57387862697
1858.57370723263
1858.57363829997
1858.57361178672
1858.57360233187
1858.57359942272
1858.57359888131
1858.5735990032
1858.57359925222
1858.57359951548
1858.57359973896
1858.57359990141
1858.57360001479
1858.57360008547
1858.57360013585
1858.57360020123
1858.57360026641
1858.57360030759
1858.57360031552
1858.57360030716
1858.57360027668
1858.57360021143
1858.57360009648
1858.57359991139
1858.57359978949
1858.57359967862
1858.5735995749
1858.57359960369
1858.57360029486
1858.5736032179
1858.57361242429
1858.57363824019
1858.57370563278
1858.57387338928
1858.57427893386
1858.57525208187
1858.57762746632
1858.5836138671
1858.59905229615
1858.63867900671
1858.73544982653
1858.9768606674
1858.4086692871
1858.33261041561
1858.30122056778
1858.28789464395
1858.28255411602
1858.28046254839
1858.2796404874
1858.27930996666
1858.27917430493
1858.27911848905
1858.27909596202
1858.27908726237
1858.27908415379
1858.27908320806
1858.27908304415
1858.27908309588
1858.2790831891
1858.27908328602
1858.27908336901
1858.27908343105
1858.27908347598
1858.27908350558
1858.27908352735
1858.27908355242
1858.27908357536
1858.27908358932
1858.27908359141
1858.27908358792
1858.27908357657
1858.27908355224
1858.27908351113
1858.27908344714
1858.27908339939
1858.27908335462
1858.27908331384
1858.27908331355
1858.2790835349
1858.27908450636
1858.27908757342
1858.27909613922
1858.27911835095
1858.27917323924
1858.27930519012
1858.27962139709
1858.28039727605
1858.28237630673
1858.28756973976
1858.30120833917
1858.33548833081
1858.42400820087
1858.22734248109
1858.2009801394
1858.19033103403
1858.18589931423
1858.18415075946
1858.18347494804
1858.18321252778
1858.18310799493
1858.18306527671
1858.18304769299
1858.18304057296
1858.18303781222
1858.18303682299
1858.18303652467
1858.1830364752
1858.18303649322
1858.18303652523
1858.18303655831
1858.18303658686
1858.18303660859
1858.18303662463
1858.18303663558
1858.18303664376
1858.18303665248
1858.18303665995
1858.18303666424
1858.18303666473
1858.18303666346
1858.18303665948
1858.18303665105
1858.18303663721
1858.18303661627
1858.18303659922
1858.18303658293
1858.18303656823
1858.18303656644
1858.18303663716
1858.18303695194
1858.1830379438
1858.18304069966
1858.18304779555
1858.18306519732
1858.18310677031
1858.18320615154
1858.1834509154
1858.18408178986
1858.18576427228
1858.19028046204
1858.20194738426
1858.23300616261
1858.16746961824
1858.15868964032
1858.15520407933
1858.1537797102
1858.15322580517
1858.15301428156
1858.15293303758
1858.15290095019
1858.15288789144
1858.15288251365
1858.15288032855
1858.15287947712
1858.15287917031
1858.15287907693
1858.15287906053
1858.15287906547
1858.1528790749
1858.15287908476
1858.15287909333
1858.15287909987
1858.15287910469
1858.152879108
1858.15287911046
1858.15287911304
1858.15287911513
1858.15287911622
1858.15287911629
1858.15287911589
1858.15287911465
1858.15287911207
1858.15287910789
1858.15287910167
1858.15287909643
1858.15287909148
1858.15287908721
1858.15287908727
1858.15287911085
1858.15287921149
1858.15287952445
1858.15288038724
1858.1528825911
1858.1528879526
1858.15290067437
1858.15293098162
1858.15300579925
1858.15320037466
1858.15372710189
1858.15517086755
1858.15899887511
1858.16946793521
1858.14837836907
1858.14555893523
1858.14445511382
1858.14401140448
1858.1438411505
1858.1437768406
1858.14375237886
1858.14374279125
1858.14373890323
1858.14373730028
1858.14373664568
1858.14373638825
1858.14373629391
1858.14373626382
1858.14373625673
1858.14373625641
1858.14373625801
1858.14373625981
1858.14373626139
1858.14373626255
1858.14373626326
1858.14373626364
1858.14373626393
1858.14373626433
1858.14373626463
1858.14373626474
1858.14373626469
1858.14373626458
1858.14373626431
1858.14373626379
1858.14373626293
1858.14373626157
1858.14373626061
1858.14373625984
1858.14373625946
1858.14373626103
1858.14373627006
1858.14373630264
1858.14373640032
1858.14373666493
1858.1437373331
1858.14373894335
1858.1437427349
1858.14375172724
1858.14377394781
1858.1438321738
1858.14399199275
1858.14443889339
1858.14565325201
1858.14905493553
1858.14248384763
1858.14160831246
1858.14126928828
1858.14113499386
1858.1410840916
1858.14106505285
1858.14105787186
1858.14105507493
1858.14105394289
1858.14105347427
1858.14105328065
1858.14105320259
1858.14105317233
1858.1410531611
1858.14105315683
1858.14105315482
1858.14105315362
1858.14105315271
1858.14105315193
1858.14105315121
1858.14105315051
1858.14105314988
1858.14105314935
1858.14105314897
1858.1410531487
1858.1410531485
1858.14105314839
1858.14105314839
1858.1410531485
1858.14105314867
1858.1410531489
1858.14105314915
1858.14105314968
1858.14105315046
1858.14105315158
1858.14105315356
1858.14105315803
1858.14105316977
1858.14105320115
1858.14105328211
1858.14105348168
1858.14105395557
1858.14105505999
1858.14105766305
1858.14106409132
1858.14108103923
1858.14112815662
1858.14126243244
1858.14163581041
1858.14270444205
1858.14071734471
1858.14045375431
1858.14035256846
1858.14031299482
1858.14029815838
1858.14029265702
1858.14029059571
1858.14028979548
1858.14028947048
1858.14028933391
1858.14028927549
1858.14028925014
1858.14028923868
1858.14028923293
1858.14028922944
1858.14028922686
1858.14028922476
1858.14028922296
1858.1402892214
1858.14028922005
1858.14028921887
1858.14028921788
1858.14028921706
1858.14028921644
1858.14028921598
1858.14028921569
1858.14028921556
1858.14028921561
1858.14028921584
1858.14028921624
1858.14028921683
1858.14028921759
1858.14028921862
1858.14028921993
1858.14028922156
1858.14028922369
1858.14028922682
1858.14028923235
1858.14028924385
1858.14028926994
1858.14028933028
1858.14028946884
1858.14028978559
1858.14029052395
1858.14029234084
1858.14029715136
1858.14031068094
1858.14034992736
1858.1404614244
1858.14078682346
1858.14020239971
1858.14012530694
1858.14009592153
1858.14008454709
1858.14008032112
1858.14007876473
1858.14007818311
1858.14007795608
1858.14007786186
1858.14007782021
1858.1400778005
1858.14007779026
1858.14007778418
1858.14007777998
1858.14007777669
1858.14007777392
1858.14007777152
1858.14007776943
1858.14007776761
1858.14007776604
1858.1400777647
1858.14007776358
1858.14007776266
1858.14007776195
1858.14007776143
1858.14007776111
1858.14007776098
1858.14007776105
1858.14007776132
1858.14007776181
1858.14007776251
1858.14007776345
1858.14007776465
1858.14007776614
1858.14007776795
1858.14007777014
1858.14007777289
1858.1400777766
1858.1400777823
1858.1400777924
1858.14007781239
1858.14007785439
1858.14007794583
1858.14007815334
1858.14007865799
1858.14007999448
1858.14008378919
1858.14009497005
1858.14012735148
1858.14022359308
1858.14005610774
1858.14003418024
1858.14002587995
1858.140022686
1858.14002150514
1858.14002107121
1858.1400209076
1858.14002084154
1858.14002081192
1858.14002079682
1858.14002078796
1858.14002078197
1858.14002077739
1858.14002077362
1858.14002077037
1858.14002076752
1858.14002076502
1858.14002076282
1858.14002076091
1858.14002075926
1858.14002075786
1858.14002075669
1858.14002075573
1858.14002075499
1858.14002075446
1858.14002075412
1858.14002075399
1858.14002075407
1858.14002075436
1858.14002075488
1858.14002075562
1858.14002075662
1858.14002075789
1858.14002075944
1858.14002076132
1858.14002076355
1858.1400207662
1858.1400207694
1858.14002077343
1858.14002077898
1858.14002078754
1858.14002080236
1858.14002083077
1858.14002089061
1858.14002103068
1858.14002139737
1858.14002244258
1858.14002555361
1858.14003469755
1858.14006238032
1858.14001553423
1858.14000947989
1858.14000721385
1858.14000633636
1858.14000600951
1858.14000588797
1858.14000583998
1858.14000581824
1858.14000580637
1858.14000579859
1858.14000579272
1858.1400057879
1858.14000578374
1858.14000578008
1858.14000577683
1858.14000577395
1858.14000577141
1858.14000576917
1858.14000576722
1858.14000576554
1858.14000576411
1858.14000576291
1858.14000576194
1858.14000576119
1858.14000576064
1858.14000576031
1858.14000576018
1858.14000576026
1858.14000576056
1858.14000576109
1858.14000576186
1858.14000576288
1858.14000576417
1858.14000576576
1858.14000576767
1858.14000576992
1858.14000577255
1858.1400057756
1858.14000577917
1858.14000578345
1858.14000578881
1858.14000579612
1858.14000580726
1858.14000582686
1858.14000586786
1858.14000597003
1858.14000625713
1858.14000710499
1858.14000960067
1858.1400173359
1858.14000453141
1858.14000292881
1858.14000234846
1858.14000211226
1858.14000201984
1858.14000198349
1858.14000196689
1858.14000195715
1858.1400019501
1858.1400019443
1858.14000193926
1858.14000193476
1858.14000193072
1858.14000192709
1858.14000192384
1858.14000192094
1858.14000191838
1858.14000191612
1858.14000191415
1858.14000191246
1858.14000191101
1858.14000190981
1858.14000190883
1858.14000190807
1858.14000190752
1858.14000190719
1858.14000190706
1858.14000190715
1858.14000190745
1858.14000190799
1858.14000190877
1858.1400019098
1858.14000191111
1858.14000191272
1858.14000191464
1858.1400019169
1858.14000191952
1858.14000192254
1858.14000192598
1858.14000192989
1858.14000193438
1858.14000193963
1858.14000194611
1858.14000195494
1858.14000196954
1858.14000200108
1858.14000208378
1858.14000231158
1858.14000295136
1858.14000503102
1858.1400016099
1858.14000122638
1858.14000110636
1858.14000104397
1858.14000101461
1858.14000100107
1858.14000099285
1858.14000098633
1858.14000098057
1858.14000097532
1858.14000097051
1858.1400009661
1858.1400009621
1858.14000095847
1858.14000095522
1858.14000095232
1858.14000094975
1858.14000094748
1858.14000094551
1858.14000094381
1858.14000094236
1858.14000094115
1858.14000094017
1858.14000093941
1858.14000093886
1858.14000093852
1858.1400009384
1858.14000093849
1858.1400009388
1858.14000093934
1858.14000094013
1858.14000094117
1858.14000094249
1858.1400009441
1858.14000094603
1858.14000094829
1858.14000095092
1858.14000095392
1858.14000095732
1858.14000096113
1858.14000096537
1858.14000097006
1858.14000097529
1858.14000098127
1858.14000098896
1858.14000100201
1858.14000103074
1858.14000109234
1858.14000122585
1858.14000174022
1858.14000084953
1858.1400007925
1858.14000079549
1858.14000077923
1858.14000076651
1858.14000075895
1858.14000075292
1858.14000074725
1858.14000074183
1858.14000073673
1858.14000073199
1858.14000072762
1858.14000072363
1858.14000072001
1858.14000071676
1858.14000071386
1858.14000071129
1858.14000070902
1858.14000070705
1858.14000070535
1858.1400007039
1858.14000070269
1858.14000070171
1858.14000070095
1858.1400007004
1858.14000070007
1858.14000069995
1858.14000070004
1858.14000070036
1858.1400007009
1858.14000070169
1858.14000070274
1858.14000070406
1858.14000070567
1858.1400007076
1858.14000070987
1858.1400007125
1858.1400007155
1858.14000071888
1858.14000072266
1858.14000072682
1858.14000073136
1858.14000073625
1858.1400007415
1858.14000074742
1858.14000075574
1858.14000077051
1858.14000078853
1858.14000078694
1858.14000087773
1858.14000065559
1858.14000068419
1858.14000071932
1858.14000071499
1858.14000070652
1858.14000070046
1858.14000069497
1858.14000068949
1858.14000068415
1858.14000067909
1858.14000067436
1858.14000067001
1858.14000066602
1858.14000066241
1858.14000065917
1858.14000065628
1858.14000065371
1858.14000065146
1858.14000064949
1858.14000064779
1858.14000064635
1858.14000064515
1858.14000064417
1858.14000064341
1858.14000064287
1858.14000064254
1858.14000064242
1858.14000064252
1858.14000064284
1858.14000064338
1858.14000064417
1858.14000064522
1858.14000064654
1858.14000064816
1858.14000065008
1858.14000065235
1858.14000065497
1858.14000065797
1858.14000066135
1858.14000066511
1858.14000066926
1858.14000067376
1858.14000067858
1858.14000068366
1858.14000068916
1858.14000069634
1858.14000070764
1858.14000071454
1858.14000067773
1858.14000065627
1858.14000060745
1858.14000065809
1858.1400007013
1858.14000069987
1858.14000069235
1858.14000068658
1858.14000068117
1858.14000067569
1858.14000067035
1858.14000066528
1858.14000066056
1858.1400006562
1858.14000065223
1858.14000064863
1858.1400006454
1858.14000064252
1858.14000063997
1858.14000063773
1858.14000063577
1858.14000063408
1858.14000063265
1858.14000063146
1858.14000063049
1858.14000062974
1858.1400006292
1858.14000062888
1858.14000062876
1858.14000062886
1858.14000062918
1858.14000062973
1858.14000063052
1858.14000063156
1858.14000063288
1858.14000063449
1858.14000063641
1858.14000063867
1858.14000064128
1858.14000064427
1858.14000064765
1858.14000065142
1858.14000065557
1858.14000066008
1858.14000066491
1858.14000066999
1858.14000067546
1858.14000068244
1858.14000069301
1858.14000069727
1858.1400006516
1858.14000060097
1858.14000059633
1858.14000065255
1858.14000069756
1858.14000069661
1858.14000068915
1858.14000068332
1858.14000067781
1858.14000067227
1858.14000066688
1858.14000066178
1858.14000065705
1858.14000065269
1858.14000064873
1858.14000064515
1858.14000064194
1858.14000063908
1858.14000063654
1858.14000063432
1858.14000063238
1858.14000063071
1858.1400006293
1858.14000062811
1858.14000062716
1858.14000062642
1858.14000062589
1858.14000062557
1858.14000062546
1858.14000062556
1858.14000062588
1858.14000062642
1858.14000062721
1858.14000062825
1858.14000062956
1858.14000063116
1858.14000063307
1858.14000063532
1858.14000063792
1858.14000064091
1858.14000064428
1858.14000064805
1858.14000065222
1858.14000065676
1858.14000066164
1858.14000066681
1858.14000067237
1858.14000067945
1858.14000069002
1858.14000069387
1858.14000064623
1858.14000058813
1858.14000059466
1858.14000065227
1858.14000069738
1858.14000069623
1858.14000068853
1858.14000068249
1858.14000067682
1858.14000067116
1858.14000066569
1858.14000066055
1858.14000065579
1858.14000065144
1858.14000064749
1858.14000064393
1858.14000064074
1858.14000063791
1858.1400006354
1858.1400006332
1858.14000063129
1858.14000062964
1858.14000062824
1858.14000062708
1858.14000062614
1858.14000062541
1858.1400006249
1858.14000062458
1858.14000062448
1858.14000062458
1858.1400006249
1858.14000062544
1858.14000062622
1858.14000062725
1858.14000062854
1858.14000063013
1858.14000063203
1858.14000063426
1858.14000063686
1858.14000063983
1858.1400006432
1858.14000064698
1858.14000065117
1858.14000065576
1858.14000066073
1858.14000066601
1858.14000067174
1858.14000067903
1858.14000068987
1858.14000069396
1858.14000064616
1858.14000058618
1858.14000059557
1858.14000065352
1858.14000069822
1858.14000069659
1858.1400006885
1858.14000068216
1858.14000067628
1858.14000067046
1858.14000066489
1858.14000065969
1858.14000065491
1858.14000065055
1858.14000064661
1858.14000064308
1858.14000063992
1858.14000063712
1858.14000063465
1858.14000063248
1858.1400006306
1858.14000062898
1858.14000062761
1858.14000062647
1858.14000062555
1858.14000062483
1858.14000062433
1858.14000062402
1858.14000062392
1858.14000062402
1858.14000062434
1858.14000062488
1858.14000062565
1858.14000062666
1858.14000062795
1858.14000062952
1858.1400006314
1858.14000063361
1858.14000063618
1858.14000063914
1858.14000064251
1858.1400006463
1858.14000065052
1858.14000065518
1858.14000066025
1858.14000066569
1858.14000067165
1858.14000067924
1858.14000069048
1858.14000069506
1858.14000064767
1858.1400005872
1858.14000059742
1858.14000065545
1858.14000069949
1858.1400006972
1858.1400006886
1858.14000068188
1858.14000067572
1858.14000066971
1858.14000066402
1858.14000065875
1858.14000065394
1858.14000064959
1858.14000064567
1858.14000064216
1858.14000063904
1858.14000063628
1858.14000063385
1858.14000063173
1858.14000062988
1858.1400006283
1858.14000062695
1858.14000062584
1858.14000062494
1858.14000062424
1858.14000062375
1858.14000062346
1858.14000062336
1858.14000062346
1858.14000062378
1858.14000062431
1858.14000062506
1858.14000062607
1858.14000062733
1858.14000062888
1858.14000063073
1858.14000063292
1858.14000063547
1858.14000063841
1858.14000064177
1858.14000064557
1858.14000064983
1858.14000065457
1858.14000065977
1858.1400006654
1858.14000067164
1858.14000067962
1858.14000069137
1858.14000069662
1858.14000064987
1858.14000058927
1858.14000059987
1858.1400006579
1858.14000070108
1858.14000069795
1858.14000068872
1858.14000068154
1858.14000067505
1858.14000066881
1858.14000066298
1858.14000065764
1858.1400006528
1858.14000064844
1858.14000064455
1858.14000064108
1858.14000063801
1858.1400006353
1858.14000063292
1858.14000063084
1858.14000062904
1858.14000062749
1858.14000062618
1858.1400006251
1858.14000062422
1858.14000062355
1858.14000062307
1858.14000062279
1858.1400006227
1858.1400006228
1858.14000062311
1858.14000062363
1858.14000062437
1858.14000062536
1858.1400006266
1858.14000062812
1858.14000062994
1858.1400006321
1858.14000063462
1858.14000063754
1858.14000064088
1858.14000064469
1858.140000649
1858.14000065382
1858.14000065916
1858.14000066503
1858.14000067159
1858.14000068004
1858.14000069242
1858.14000069851
1858.14000065262
1858.14000059199
1858.1400006029
1858.14000066088
1858.14000070298
1858.14000069882
1858.14000068882
1858.14000068109
1858.14000067421
1858.14000066772
1858.14000066173
1858.14000065631
1858.14000065144
1858.1400006471
1858.14000064324
1858.14000063982
1858.14000063681
1858.14000063415
1858.14000063183
1858.1400006298
1858.14000062805
1858.14000062655
1858.14000062528
1858.14000062423
1858.14000062338
1858.14000062273
1858.14000062227
1858.140000622
1858.14000062191
1858.14000062202
1858.14000062232
1858.14000062283
1858.14000062356
1858.14000062452
1858.14000062573
1858.14000062722
1858.14000062901
1858.14000063113
1858.14000063361
1858.1400006365
1858.14000063983
1858.14000064364
1858.14000064798
1858.14000065289
1858.14000065839
1858.14000066452
1858.14000067147
1858.14000068047
1858.14000069363
1858.14000070075
1858.14000065592
1858.14000059531
1858.14000060659
1858.14000066446
1858.14000070521
1858.14000069979
1858.14000068887
1858.1400006805
1858.14000067318
1858.14000066642
1858.14000066026
1858.14000065476
1858.14000064988
1858.14000064555
1858.14000064174
1858.14000063838
1858.14000063542
1858.14000063284
1858.14000063058
1858.14000062861
1858.14000062692
1858.14000062547
1858.14000062424
1858.14000062323
1858.14000062241
1858.14000062179
1858.14000062135
1858.14000062109
1858.14000062101
1858.14000062111
1858.14000062141
1858.14000062191
1858.14000062261
1858.14000062355
1858.14000062473
1858.14000062618
1858.14000062792
1858.14000063
1858.14000063244
1858.14000063529
1858.14000063859
1858.1400006424
1858.14000064677
1858.14000065177
1858.14000065744
1858.14000066385
1858.14000067124
1858.14000068089
1858.14000069498
1858.14000070336
1858.14000065986
1858.14000059932
1858.14000061109
1858.14000066877
1858.14000070783
1858.14000070087
1858.14000068885
1858.14000067974
1858.14000067194
1858.14000066487
1858.14000065856
1858.14000065298
1858.14000064809
1858.1400006438
1858.14000064004
1858.14000063675
1858.14000063387
1858.14000063136
1858.14000062917
1858.14000062728
1858.14000062564
1858.14000062425
1858.14000062307
1858.1400006221
1858.14000062132
1858.14000062072
1858.14000062031
1858.14000062006
1858.14000061999
1858.14000062009
1858.14000062038
1858.14000062086
1858.14000062155
1858.14000062245
1858.1400006236
1858.140000625
1858.1400006267
1858.14000062872