/*--------------------------------*- C++ -*----------------------------------*\
  =========                 |
  \\      /  F ield         | OpenFOAM: The Open Source CFD Toolbox
   \\    /   O peration     | Website:  https://openfoam.org
    \\  /    A nd           | Version:  10
     \\/     M anipulation  |
\*---------------------------------------------------------------------------*/
FoamFile
{
    format      ascii;
    class       volScalarField;
    location    "4.8";
    object      k;
}
// * * * * * * * * * * * * * * * * * * * * * * * * * * * * * * * * * * * * * //

dimensions      [0 2 -2 0 0 0 0];

internalField   nonuniform List<scalar> 
2500
(
1.483840671656e-09
2.88947952837007e-08
1.21921052583408e-07
2.06553238843986e-07
2.73008369693108e-07
3.19865007825835e-07
3.49744485883604e-07
3.67077864376671e-07
3.76280316964752e-07
3.80778385596163e-07
3.82814231640061e-07
3.83672075231891e-07
3.8401025439523e-07
3.8413550318445e-07
3.84179206514631e-07
3.84193568658833e-07
3.84197970472094e-07
3.84199174235514e-07
3.84199411855539e-07
3.84199385050956e-07
3.84199299701033e-07
3.84199213573718e-07
3.84199139003333e-07
3.84199078782184e-07
3.84199033565462e-07
3.84199004242181e-07
3.84198993835853e-07
3.84198997676897e-07
3.8419900377234e-07
3.84199016817681e-07
3.84199017169525e-07
3.84198907964347e-07
3.84198371687333e-07
3.84196457766215e-07
3.84190272463185e-07
3.84171508416979e-07
3.8411754401606e-07
3.83970177450027e-07
3.83588739134442e-07
3.82656043749082e-07
3.80510516725353e-07
3.75889569337173e-07
3.6662056354502e-07
3.49403324846147e-07
3.19965601051645e-07
2.73919745793621e-07
2.08421951785033e-07
1.24262074268675e-07
2.99914582427692e-08
1.5801973983647e-09
3.63196451062186e-08
8.24681401229661e-07
3.55355770134638e-06
6.02871515841532e-06
7.98092372629516e-06
9.36636949106254e-06
1.0256812575378e-05
1.07779615272489e-05
1.1057293496732e-05
1.11951914101472e-05
1.12582410389322e-05
1.12850804165312e-05
1.12957688235506e-05
1.12997673409925e-05
1.13011766068496e-05
1.130164457594e-05
1.13017897847446e-05
1.13018303323043e-05
1.13018389060046e-05
1.13018385548016e-05
1.13018361471956e-05
1.13018336346867e-05
1.13018314438477e-05
1.13018296744152e-05
1.13018283495021e-05
1.13018274979404e-05
1.13018272140527e-05
1.13018273342237e-05
1.13018274993218e-05
1.13018278669677e-05
1.13018277335583e-05
1.13018238544277e-05
1.13018058450071e-05
1.13017428879394e-05
1.13015415769823e-05
1.13009363252861e-05
1.12992104606038e-05
1.12945376716722e-05
1.12825480051368e-05
1.12534910321456e-05
1.11872521673408e-05
1.10458825855263e-05
1.07648609008657e-05
1.0247422817656e-05
9.37002552826176e-06
8.00790671210636e-06
6.08271922704902e-06
3.62040418490903e-06
8.55121039161588e-07
3.85652191042742e-08
1.27525189367578e-07
3.66643154727286e-06
1.78225657955302e-05
3.01216900674151e-05
3.97461955281828e-05
4.65598627122431e-05
5.09437924026481e-05
5.35192538694351e-05
5.49075429119803e-05
5.55976669467885e-05
5.59156428138728e-05
5.60521069346143e-05
5.61069096903722e-05
5.61275875480467e-05
5.61349397463363e-05
5.61374042271869e-05
5.61381777435633e-05
5.61383979453041e-05
5.61384472932732e-05
5.61384480615359e-05
5.61384373506567e-05
5.61384255804277e-05
5.61384151968523e-05
5.61384067792869e-05
5.61384004644078e-05
5.61383963980668e-05
5.61383950449299e-05
5.61383955093174e-05
5.61383961984413e-05
5.61383976898822e-05
5.6138396215235e-05
5.61383744868232e-05
5.61382785896839e-05
5.61379485232931e-05
5.61369013734879e-05
5.6133772506729e-05
5.61249014799359e-05
5.61010191722123e-05
5.60400940098053e-05
5.58933089371587e-05
5.55606717326011e-05
5.48548483807251e-05
5.34593104685908e-05
5.0901334507067e-05
4.65770421408134e-05
3.9869133460678e-05
3.03669336180265e-05
1.81262003163533e-05
3.78742915110202e-06
1.34052104891372e-07
2.23574345192454e-07
6.47295591678335e-06
3.1465481061585e-05
5.2857038602132e-05
6.9443903588322e-05
8.11181545304552e-05
8.86059718592385e-05
9.30004531962216e-05
9.53705154083858e-05
9.65505555026056e-05
9.7095523014709e-05
9.73300678524935e-05
9.74245634397474e-05
9.74603454418587e-05
9.74731182787985e-05
9.74774191460335e-05
9.74787769559795e-05
9.74791674773745e-05
9.74792574741816e-05
9.74792610770129e-05
9.74792443136548e-05
9.74792251090568e-05
9.74792080117413e-05
9.74791940892592e-05
9.74791835900052e-05
9.7479176739087e-05
9.7479174283071e-05
9.74791747381747e-05
9.74791760230085e-05
9.74791781651933e-05
9.74791753658957e-05
9.74791380088605e-05
9.74789761220735e-05
9.74784190233049e-05
9.74766494952819e-05
9.74713535038956e-05
9.7456313085564e-05
9.74157592797174e-05
9.73121656019861e-05
9.70623024154387e-05
9.64955571427389e-05
9.5292019620441e-05
9.29103669404941e-05
8.85395279690534e-05
8.11355027917617e-05
6.96109501449005e-05
5.31974197126203e-05
3.18876173095737e-05
6.63962382747554e-06
2.32447912986082e-07
3.15369663598857e-07
9.13709373460632e-06
4.41999434559594e-05
7.38561970336489e-05
9.66826858478704e-05
0.000112674048809505
0.0001229059041516
0.000128906377357124
0.000132144201805751
0.000133758515856279
0.000134505537929253
0.000134827841864664
0.000134958067113275
0.00013500753760293
0.000135025260773053
0.000135031253934226
0.000135033156802161
0.000135033709814093
0.000135033840881496
0.000135033849421965
0.000135033828769785
0.000135033804047914
0.000135033781791472
0.000135033763561097
0.00013503374971485
0.000135033740504302
0.000135033736728258
0.000135033737067186
0.000135033739003269
0.000135033741035725
0.000135033736358551
0.00013503368472042
0.000135033466034631
0.000135032714142711
0.000135030323745312
0.000135023158127289
0.000135002772450219
0.000134947713924748
0.000134806856224423
0.000134466671549616
0.000133694206352149
0.00013205222930581
0.000128799889706028
0.000122824248944497
0.000112684404872996
9.68585222321516e-05
7.42238232277638e-05
4.46589003436333e-05
9.32105795008446e-06
3.25347275220921e-07
3.9980080176637e-07
1.15887652143276e-05
5.57881649862349e-05
9.27956195245263e-05
0.000121109170400744
0.000140871453896124
0.000153492813916024
0.000160891331593309
0.000164885845187158
0.00016688005609068
0.000167804596076056
0.000168204403750791
0.000168366371928968
0.000168428085299819
0.000168450269800996
0.000168457802041894
0.000168460206889141
0.000168460913069137
0.000168461085230719
0.000168461100879624
0.000168461078544284
0.000168461050267125
0.000168461024450531
0.000168461003145133
0.00016846098681812
0.000168460975706227
0.000168460970364151
0.000168460970259553
0.000168460972516067
0.000168460974204302
0.000168460966820993
0.000168460901762372
0.000168460634082206
0.0001684597157181
0.000168456795488128
0.000168448031074122
0.000168423059904128
0.000168355517080104
0.000168182487874694
0.000167764118365025
0.00016681318315144
0.000164790149505992
0.000160779858443995
0.000153404790664731
0.000140873624170853
0.000121274141181822
9.3149369814391e-05
5.62343208459019e-05
1.17728979796141e-05
4.10108476460412e-07
4.75197851698357e-07
1.37827397303433e-05
6.60755688028003e-05
0.000109485647071988
0.000142535493489871
0.000165536863598768
0.000180206997583327
0.000188804755232029
0.000193449744494196
0.000195771638195201
0.000196849967665672
0.000197317266686413
0.000197507039583017
0.000197579547652935
0.000197605695303196
0.00019761460718149
0.000197617467719968
0.000197618316140218
0.000197618528836279
0.000197618553629109
0.000197618531593588
0.000197618501593554
0.000197618473719506
0.000197618450500295
0.000197618432514825
0.000197618419984944
0.000197618413244016
0.000197618412425798
0.000197618414196814
0.000197618415486174
0.000197618404508628
0.000197618326423333
0.000197618016758493
0.000197616957299491
0.000197613589848544
0.000197603474787031
0.000197574620166471
0.000197496474402231
0.000197296048995982
0.00019681094690254
0.000195707399213621
0.000193358041059487
0.00018869789202454
0.00018012157014136
0.000165534519634262
0.000142682533743904
0.000109805403754585
6.64826701479896e-05
1.39574076805351e-05
4.85364280100444e-07
5.40704275981715e-07
1.5694419938015e-05
7.49887414884672e-05
0.000123860741924213
0.000160923425486621
0.000186659973169807
0.000203058804140121
0.000212669562815825
0.000217865389573585
0.000220465767736693
0.000221675377376461
0.000222200586764255
0.000222414356018973
0.000222496240830693
0.000222525856535313
0.000222535986561124
0.000222539254525336
0.000222540232847961
0.000222540484910845
0.000222540520647048
0.000222540500350005
0.000222540470195152
0.000222540441567485
0.000222540417446738
0.000222540398525075
0.000222540385020302
0.000222540377153837
0.000222540375145717
0.00022254037602417
0.00022254037631556
0.000222540360681552
0.000222540271008864
0.000222539925320994
0.000222538747530135
0.00022253500743533
0.000222523767172077
0.000222491670992929
0.000222404652911342
0.000222181248344273
0.000221640058426772
0.000220408033782887
0.000217783626093847
0.000212575240845362
0.000202984728398053
0.000186660240943564
0.000161054911121485
0.000124142229697714
7.53478647221779e-05
1.58554233771175e-05
5.50480219413672e-07
5.96127186339637e-07
1.73174697630254e-05
8.25284318881592e-05
0.000135964725402882
0.000176364087414373
0.000204370325959796
0.000222203784956864
0.000232656612822052
0.000238311630272883
0.000241145034784432
0.000242464992828371
0.000243039131459117
0.00024327329300634
0.000243363197619273
0.000243395801244295
0.000243406990114801
0.000243410616634259
0.000243411711617835
0.000243412000928898
0.000243412048339316
0.000243412031461658
0.000243412002409711
0.000243411974079161
0.000243411949879573
0.000243411930615985
0.000243411916507416
0.000243411907687501
0.000243411904175887
0.000243411903877941
0.000243411902625733
0.000243411882094031
0.000243411782041005
0.000243411405487872
0.000243410129666622
0.000243406083509813
0.000243393920094813
0.000243359160473242
0.000243264836539815
0.000243022469298034
0.00024243490983364
0.000241096516894244
0.000238244158232114
0.000232581106837665
0.000222149088119964
0.000204382169850979
0.000176488542346758
0.000136214483696527
8.28427292793736e-05
1.74644787018505e-05
6.05428229974338e-07
6.41820807411314e-07
1.8660951610345e-05
8.87574715809003e-05
0.000145930289040547
0.000189052013013843
0.000218908366207299
0.000237912217184369
0.000249053483850854
0.000255085095914119
0.000258110367948162
0.00025952160526116
0.000260136429693658
0.000260387646352341
0.000260484301449595
0.000260519438401418
0.000260531532930947
0.000260535469887162
0.000260536667959041
0.000260536991651336
0.000260537051054147
0.000260537038590598
0.000260537011551696
0.000260536984299821
0.000260536960644406
0.000260536941500671
0.000260536927094465
0.000260536917494502
0.000260536912525972
0.000260536910647986
0.000260536906621299
0.000260536881799072
0.000260536772748143
0.000260536370131139
0.000260535014216251
0.000260530720589323
0.000260517812140454
0.000260480900633055
0.000260380662714285
0.000260122915484285
0.000259497684205335
0.000258072763692234
0.000255034810097203
0.000249001380140195
0.000237883651715716
0.000218941009045547
0.000189180986941626
0.000146161028027184
8.90374496300872e-05
1.87961403029108e-05
6.50676029851362e-07
6.78552711953679e-07
1.97457565954693e-05
9.37854129572045e-05
0.000153954962946528
0.000199255752903994
0.000230593040839482
0.000250535114517768
0.000262229668847823
0.000268564982658822
0.000271745626779689
0.000273231133179974
0.000273879237475944
0.000274144486340691
0.000274246731206439
0.00027428398111198
0.000274296837605173
0.000274301038864049
0.000274302326500496
0.000274302681272009
0.000274302752354554
0.00027430274479669
0.000274302720350776
0.000274302694695747
0.000274302672010219
0.000274302653315211
0.000274302638849226
0.000274302628640977
0.000274302622422934
0.000274302618695482
0.000274302612037814
0.000274302583215019
0.000274302465884273
0.000274302041528338
0.000274300621163459
0.000274296130756872
0.000274282631388397
0.000274244011859053
0.000274139071823177
0.000273869074315751
0.000273213790839625
0.000271719763025891
0.000268533463887579
0.000262203864650191
0.000250537716921762
0.000230654636445952
0.000199401181522317
0.00015418164198506
9.40449212106218e-05
1.98726155510035e-05
6.87058160609659e-07
7.07360924432566e-07
2.06006916707005e-05
9.7752070738204e-05
0.000160276348740625
0.000207288064707335
0.000239789117522314
0.000260469972335866
0.000272601485274465
0.000279177536000549
0.000282481874968416
0.000284026798598122
0.000284701671903348
0.000284978274503256
0.000285085071446867
0.000285124054534267
0.000285137541440124
0.00028514196391419
0.000285143327950356
0.00028514371012516
0.000285143792167925
0.000285143789717499
0.000285143768165512
0.000285143744402051
0.000285143722946107
0.000285143704918284
0.000285143690574007
0.000285143679918432
0.000285143672634719
0.000285143667218882
0.000285143658105474
0.000285143625459408
0.000285143500821543
0.000285143058626191
0.000285141587251328
0.000285136943101678
0.000285122983481949
0.000285083033027403
0.000284974423437103
0.000284694849911002
0.000284016040880859
0.000282467855210289
0.000279165217722358
0.000272603264288665
0.000260506812262019
0.000239885818610409
0.000207460316050598
0.000160513209701651
9.80051961438958e-05
2.07230707532271e-05
7.15640630276648e-07
7.2941801469336e-07
2.12586969516793e-05
0.000100811928818614
0.000165149168360553
0.000213478531365124
0.000246877242234197
0.000268129389134906
0.000280599915699971
0.000287363483070738
0.00029076460931067
0.000292356260280305
0.000293052301998401
0.000293337936815343
0.000293448378714472
0.000293488759683187
0.000293502759399573
0.000293507363860787
0.000293508791871082
0.000293509197675495
0.000293509289686923
0.000293509292231293
0.000293509273634812
0.000293509251873715
0.000293509231769824
0.000293509214535066
0.000293509200444058
0.000293509189488218
0.000293509181320652
0.000293509174414821
0.000293509163081503
0.000293509126995038
0.000293508996116684
0.000293508539556628
0.000293507028516822
0.000293502266428144
0.000293487954992984
0.000293446986976807
0.000293335567977638
0.000293048651683916
0.000292351779023957
0.000290761966243751
0.000287369847214036
0.000280629115214495
0.000268201541251174
0.000247012717903091
0.000213685211814721
0.000165407806235136
0.000101070886811776
2.13801231469487e-05
7.37594952247797e-07
7.45915770348595e-07
2.17535836942853e-05
0.000103120860766305
0.000168826005795712
0.000218150721710352
0.00025222900831053
0.000273914941829603
0.000286643821451173
0.000293550893795293
0.000297026442135659
0.000298654210517394
0.000299366706836654
0.000299659405427904
0.000299772716732931
0.000299814206174075
0.000299828615991145
0.000299833367598632
0.000299834848211909
0.000299835273964113
0.000299835374774703
0.000299835381966788
0.000299835366206558
0.000299835346420638
0.000299835327687209
0.000299835311300026
0.000299835297553233
0.000299835286430465
0.000299835277563881
0.000299835269399696
0.000299835256146457
0.000299835217105609
0.000299835081061828
0.000299834613174051
0.000299833071862549
0.000299828220995067
0.000299813645750278
0.000299771914702543
0.000299658386391173
0.000299365949015423
0.000298655476451249
0.000297034291628144
0.000293574689958511
0.000286699082153607
0.000274021666081062
0.000252404385870374
0.000218396198135032
0.000169114416671744
0.000103394844034947
2.1876858376163e-05
7.54093510123448e-07
7.57978386647976e-07
2.21175306395187e-05
0.00010482600196417
0.000171542803870514
0.000221605089401806
0.000256188330374194
0.00027819767704402
0.000291119935303667
0.000298134902163698
0.000301666681777619
0.000303321886526506
0.000304046955026209
0.000304345084265787
0.000304460616319536
0.000304502969938953
0.000304517702179036
0.000304522570720417
0.000304524093802572
0.00030452453603898
0.000304524644422554
0.000304524655799996
0.000304524642622323
0.000304524624689508
0.000304524607272296
0.000304524591735191
0.000304524578391054
0.000304524567219481
0.000304524557836928
0.000304524548663812
0.000304524533827583
0.000304524492355507
0.000304524352168759
0.000304523875547512
0.000304522311582829
0.000304517395171726
0.000304502625938311
0.000304460333862515
0.000304345252828243
0.00030404874546311
0.000303328234654514
0.000301683870736031
0.000298174375514738
0.000291199006074654
0.000278336756864253
0.000256402475181062
0.000221890594114947
0.000171865238484044
0.000105120836065811
2.22445716277355e-05
7.66232440075137e-07
7.66606179005238e-07
2.2379413431569e-05
0.000106059012120736
0.000173509372417359
0.000224107883785541
0.000259059421994568
0.000281305541876519
0.000294369975321
0.000301464641699311
0.000305038172065741
0.000306713861074847
0.000307448371915096
0.000307750605687779
0.000307867827572391
0.000307910843621472
0.000307925825095136
0.000307930784979864
0.0003079323417351
0.0003079327973029
0.000307932912101457
0.000307932927186229
0.000307932916208531
0.000307932899949742
0.000307932883750701
0.000307932869033114
0.000307932856126783
0.000307932845009562
0.00030793283528601
0.000307932825354354
0.000307932809280191
0.000307932765893214
0.000307932622493229
0.000307932139302567
0.000307930558734831
0.000307925594889653
0.000307910685809945
0.000307867989332894
0.000307751787768404
0.000307452339154122
0.000306724564815651
0.000305063411891497
0.000301517751670059
0.00029447003656643
0.000281473711385519
0.000259309436183081
0.000224432019935255
0.000173866760996431
0.000106377399563993
2.2511281264542e-05
7.74982826843538e-07
7.72646916046312e-07
2.2563910703793e-05
0.000106932488691211
0.000174904515688003
0.000225885594475089
0.000261100858384954
0.000283517219391311
0.000296684340166683
0.000303836854830022
0.000307440851169176
0.000309131573411272
0.000309873056148206
0.000310178340145915
0.000310296826434204
0.000310340341830081
0.000310355512761893
0.000310360542804653
0.000310362125796601
0.000310362591930014
0.000310362711969604
0.000310362730149105
0.00031036272118942
0.000310362706409053
0.000310362691309366
0.00031036267736208
0.000310362664911927
0.000310362653936576
0.000310362644031609
0.000310362633577604
0.00031036261659389
0.000310362571770849
0.000310362425970315
0.000310361937972297
0.000310360345504885
0.000310355348033082
0.000310340340149924
0.000310297357942822
0.000310180363699838
0.000309878831406182
0.000309145904613184
0.000307472829642695
0.000303901467890018
0.000296802309700291
0.000283710609094618
0.000261382674746876
0.000226245051342481
0.000175295218076193
0.000107274606410707
2.27009495114139e-05
7.81167039247876e-07
7.76789630790403e-07
2.26912433435786e-05
0.000107538971640413
0.000175874947571244
0.000227123935738852
0.00026252463931923
0.000285061236075127
0.000298301229411223
0.000305495008802873
0.000309120857887666
0.000310822426899342
0.000311568971427297
0.000311876484572514
0.000311995901356066
0.000312039786994233
0.000312055099590348
0.000312060182636639
0.000312061785732294
0.000312062260113747
0.000312062384331422
0.000312062405103564
0.000312062397890227
0.000312062384393468
0.000312062370271359
0.000312062357038617
0.000312062345053076
0.000312062334293029
0.000312062324347716
0.000312062313583932
0.0003120622959878
0.000312062250152865
0.000312062102639229
0.000312061611236631
0.000312060010451877
0.000312054989659309
0.000312039913406975
0.000311996733381372
0.0003118791895525
0.000311576210304026
0.000310839700465329
0.00030915832521167
0.000305569053526935
0.000298434022898389
0.000285275779003964
0.00026283360505904
0.000227514249118779
0.000176295613517641
0.000107903212404487
2.28332738313626e-05
7.85454817771857e-07
7.79573721496708e-07
2.2777369646655e-05
0.000107951835268969
0.000176536961296235
0.000227970134583008
0.000263498896602688
0.000286118918514771
0.000299409730572261
0.000306632442280888
0.000310273701419645
0.000311982965930786
0.00031273312470436
0.000313042240242037
0.00031316233065398
0.000313206486373886
0.000313221903196143
0.000313227025646464
0.000313228643901398
0.000313229124639993
0.000313229252157628
0.000313229275047399
0.000313229269308235
0.000313229256913301
0.000313229243654112
0.000313229231080804
0.000313229219562029
0.000313229209077369
0.000313229199211626
0.000313229188321494
0.000313229170369624
0.000313229123883985
0.000313228975221618
0.000313228481507767
0.000313226875082539
0.000313221838510064
0.000313206715992804
0.000313163401898421
0.000313045484853416
0.000312741521105539
0.000312002569310059
0.00031031552937597
0.000306714021253341
0.000299554460169084
0.00028635067871123
0.000263830273438302
0.000228386372984661
0.000176983341908612
0.000108335535519766
2.29238856539495e-05
7.88372921030967e-07
7.81407231018364e-07
2.28344589944267e-05
0.000108227357820517
0.000176979812742416
0.000228537272684636
0.000264152869380465
0.000286829749134577
0.000300155382574788
0.000307398031727332
0.000311049973869584
0.000312764607001156
0.00031351730387692
0.000313827552484105
0.000313948122692105
0.000313992472279736
0.000314007964572469
0.000314013115862007
0.00031401474537614
0.000314015230955578
0.000314015361060534
0.0003140153856583
0.000314015381148043
0.000314015369695064
0.000314015357198373
0.000314015345235343
0.000314015334183325
0.000314015324023297
0.000314015314337319
0.000314015303474955
0.000314015285382655
0.000314015238545313
0.000314015089187368
0.000314014594000394
0.000314012983904688
0.000314007936978852
0.000313992783964314
0.00031394938116087
0.000313831216370197
0.000313526597304974
0.000312786016367769
0.000311095190280405
0.000307485491318663
0.000300309489751338
0.000287075156309805
0.000264502212105863
0.000228974581948105
0.000177447428602107
0.00010862741494057
2.29847975903756e-05
7.90322734811154e-07
7.8258900228159e-07
2.28714947043241e-05
0.000108407355772671
0.000177269913052353
0.000228909590745478
0.000264582939748674
0.000287297844735161
0.000300646900934612
0.000307903042698858
0.000311562260706136
0.000313280574611356
0.000314035023701959
0.000314346060183056
0.000314466966533708
0.000314511453041427
0.000314526999121319
0.000314532171196989
0.000314533808955118
0.000314534298173016
0.000314534430288949
0.000314534456269809
0.000314534452781716
0.000314534442137741
0.000314534430319058
0.000314534418924404
0.00031453440833794
0.000314534398542078
0.000314534389117388
0.000314534378408506
0.000314534360351344
0.000314534313403577
0.000314534163707088
0.000314533667682074
0.000314532055351999
0.000314527001936781
0.000314511829533234
0.000314468369844207
0.000314350045206571
0.000314045001333706
0.000313303360386923
0.000311610063520028
0.000307995006574697
0.000300808229391721
0.000287553837448107
0.000264946346457954
0.000229363575677791
0.000177754542245745
0.000108820692966428
2.30249664213197e-05
7.91601143659169e-07
7.83330892560848e-07
2.28948944214322e-05
0.000108521912169983
0.000177455131793458
0.000229147907419281
0.000264858786525577
0.000287598558762654
0.000300963033101248
0.000308228117054863
0.0003118921914265
0.000313612980136709
0.000314368616260566
0.000314680190652347
0.000314801328362557
0.000314845909924564
0.000314861493711345
0.000314866680539422
0.000314868324253238
0.000314868816173636
0.000314868949841676
0.000314868976940213
0.000314868974323382
0.000314868964382847
0.000314868953174263
0.000314868942314649
0.000314868932193207
0.000314868922793881
0.000314868913696502
0.000314868903242747
0.0003148688853619
0.000314868838496094
0.000314868688740246
0.000314868192358197
0.000314866578844239
0.000314861521697109
0.000314846337725097
0.000314802843396333
0.000314684420109037
0.000314379111506878
0.000313636805087122
0.000311941948089082
0.000308323492384266
0.000301129854379248
0.000287862651492732
0.000265233036256715
0.000229614863167846
0.000177953124533585
0.00010894579064147
2.30508725241624e-05
7.92421361394764e-07
7.83777640005284e-07
2.29090748937553e-05
0.000108591880553145
0.00017756873406462
0.000229294570922241
0.000265029007331981
0.000287784515542564
0.000301158827726821
0.000308429666412739
0.000312096893848138
0.000313819303745821
0.000314575724546834
0.000314887657815297
0.000315008951347184
0.000315053597569363
0.000315069207295995
0.000315074404419768
0.000315076052379619
0.000315076546291462
0.000315076681151836
0.00031507670916393
0.000315076707298151
0.000315076697976445
0.000315076687323987
0.000315076676972667
0.000315076667315737
0.000315076658338316
0.00031507664962031
0.000315076639501714
0.000315076621908354
0.000315076575275308
0.000315076425677464
0.000315075929306809
0.00031507431539523
0.000315069256535508
0.000315054066628242
0.000315010553493419
0.000314892074732309
0.000314586613577959
0.000313843916698031
0.000312148131665588
0.000308527632574948
0.00030132983481577
0.000288054811413843
0.000265411613135783
0.00022977159641968
0.000178077186393118
0.000109024084116764
2.3067050155667e-05
7.92931598442431e-07
7.84023119219647e-07
2.29169198656548e-05
0.000108630976398495
0.00017763266738744
0.000229377593931578
0.000265125816336949
0.000287890656421541
0.000301270881342966
0.000308545226020847
0.000312214401283403
0.00031393782616987
0.00031469474484405
0.000315006908860681
0.000315128303914738
0.000315172992838968
0.000315188619954643
0.000315193824112443
0.000315195475056447
0.000315195970430964
0.000315196106214801
0.000315196134984324
0.000315196133771042
0.000315196124999955
0.000315196114861417
0.000315196104997543
0.000315196095804556
0.000315196087268839
0.000315196078970481
0.000315196069248744
0.000315196052028591
0.000315196005745223
0.000315195856475405
0.000315195360407327
0.000315193746720511
0.000315188687728193
0.000315173496215254
0.000315129976224884
0.00031501147404843
0.000314705942476501
0.000313963054145008
0.000312266794053334
0.00030864521515021
0.000301445165543954
0.000288165828565997
0.000265515025517924
0.000229862627023716
0.000178149497110684
0.000109069904582408
2.30765305191751e-05
7.932304488176e-07
7.84122413172396e-07
2.29201332686262e-05
0.000108647366147638
0.00017766005960551
0.000229413792404285
0.00026516861320363
0.000287938078933345
0.000301321335441959
0.000308597537649495
0.000312267779153448
0.000313991776033991
0.000314748983358353
0.00031506128487847
0.000315182742092696
0.000315227457927653
0.000315243096395089
0.00031524830538365
0.000315249958544462
0.000315250455128472
0.000315250591755195
0.000315250621260065
0.000315250620687773
0.000315250612459211
0.00031525060283429
0.000315250593456463
0.000315250584724417
0.000315250576625741
0.00031525056874045
0.000315250559407485
0.000315250542552517
0.000315250496616855
0.000315250347698595
0.000315249852044426
0.000315248238969401
0.000315243181053845
0.000315227991485456
0.00031518447454403
0.000315065975241299
0.000314760439462384
0.000314017517262558
0.00031232113492624
0.000308699215985932
0.00030149836159655
0.000288217344338212
0.000265563389079248
0.000229905609635628
0.000178184026855798
0.000109092071812433
2.30811796351962e-05
7.93378519015071e-07
7.84099482725279e-07
2.29194641387702e-05
0.000108644711493584
0.000177656883788366
0.000229410896437743
0.000265166388541739
0.000287936622822896
0.00030132056616175
0.000308597294731062
0.000312267894673276
0.000313992112210978
0.00031474944426988
0.000315061811133205
0.000315183300496907
0.000315228031465507
0.000315243676963051
0.000315248889346836
0.000315250544342628
0.000315251042111772
0.000315251179664357
0.000315251209999921
0.000315251210134339
0.000315251202497657
0.000315251193422188
0.000315251184544589
0.000315251176265543
0.000315251168573644
0.000315251161048773
0.000315251152029291
0.000315251135442577
0.000315251089741751
0.000315250941066934
0.000315250445789937
0.000315248833560562
0.000315243777790081
0.000315228593588881
0.000315185089366879
0.000315066618294759
0.000314761140873301
0.000314018330398543
0.000312322144770988
0.000308700541427458
0.000301500142558853
0.000288219704545086
0.000265566370410274
0.000229909082457273
0.000178187585721391
0.000109094924977366
2.30819249573815e-05
7.93406215384442e-07
7.83951380011826e-07
2.29148327110355e-05
0.000108622718939571
0.000177622793116662
0.000229368596147782
0.000265118911946108
0.000287886149333968
0.000301268518732934
0.00030854450847872
0.000312214804557069
0.000313938920320961
0.00031469622930474
0.000315008597657358
0.000315130093087699
0.000315174829101588
0.000315190477947115
0.000315195692478804
0.000315197348939423
0.000315197847821669
0.000315197986322105
0.000315198017522484
0.000315198018385961
0.000315198011356257
0.000315198002839502
0.000315197994460957
0.000315197986622599
0.000315197979314093
0.00031519797211492
0.000315197963363475
0.000315197946991004
0.000315197901470345
0.00031519775301099
0.000315197258194252
0.000315195647250089
0.000315190595099755
0.000315175420565398
0.000315131940665323
0.000315013527330061
0.000314708179279119
0.000313965642145866
0.000312270000100389
0.000308649412085309
0.000301450791127384
0.000288173267793465
0.000265524404418056
0.000229873533035488
0.000178160656246136
0.000109078831834225
2.30788602027538e-05
7.93316950892645e-07
7.83648838422036e-07
2.29053412377744e-05
0.000108577148796217
0.000177551118294618
0.000229278528401715
0.000265016717366668
0.000287776530164583
0.000301154701255622
0.00030842850612106
0.00031209775767868
0.000313821416599457
0.000314578543279227
0.000314890845941892
0.000315012320641783
0.000315057051545106
0.000315072700063529
0.000315077915466348
0.000315079572962084
0.000315080072815046
0.000315080212213868
0.000315080244253661
0.000315080245824946
0.000315080239383635
0.000315080231409905
0.000315080223515922
0.000315080216103899
0.000315080209164877
0.000315080202278554
0.000315080193784349
0.00031508017762084
0.000315080132292304
0.000315079984115298
0.000315079489994031
0.000315077881064961
0.000315072834653959
0.000315057675632123
0.000315014235418517
0.000314895918270124
0.000314590790986305
0.000313848732911277
0.00031215407138539
0.000308535371420812
0.000301340162506437
0.00028806841563723
0.000265428704944397
0.000229791408374449
0.000178097400608662
0.000109040209454378
2.30712620265047e-05
7.9308863199283e-07
7.83131324772123e-07
2.28891375822292e-05
0.000108499278211481