/*--------------------------------*- C++ -*----------------------------------*\
  =========                 |
  \\      /  F ield         | OpenFOAM: The Open Source CFD Toolbox
   \\    /   O peration     | Website:  https://openfoam.org
    \\  /    A nd           | Version:  10
     \\/     M anipulation  |
\*---------------------------------------------------------------------------*/
FoamFile
{
    format      ascii;
    class       volScalarField;
    location    "4.8";
    object      nut;
}
// * * * * * * * * * * * * * * * * * * * * * * * * * * * * * * * * * * * * * //

dimensions      [0 2 -1 0 0 0 0];

internalField   nonuniform List<scalar> 
2500
(
1.15806497754565e-14
2.25486600605923e-13
9.51472775692406e-13
1.61197957776973e-12
2.13063238331186e-12
2.49632848045254e-12
2.72952458949787e-12
2.86480350820584e-12
2.93662412362074e-12
2.9717292315069e-12
2.9876179382621e-12
2.99431294849401e-12
2.99695225532549e-12
2.99792976270049e-12
2.99827085340344e-12
2.99838295455028e-12
2.99841731464349e-12
2.99842671751775e-12
2.99842858130544e-12
2.99842837846811e-12
2.99842771789178e-12
2.99842705056896e-12
2.99842647264089e-12
2.99842600502282e-12
2.99842565472629e-12
2.99842542823505e-12
2.99842534784571e-12
2.99842537833162e-12
2.99842542579604e-12
2.99842552665997e-12
2.99842552775096e-12
2.99842467226469e-12
2.99842048310536e-12
2.99840554130526e-12
2.99835726336852e-12
2.99821081491588e-12
2.99778964700835e-12
2.99663952941627e-12
2.99366260533384e-12
2.98638341836476e-12
2.96963871032918e-12
2.93357457362376e-12
2.86123451166006e-12
2.72686194998037e-12
2.49711342405492e-12
2.13774499982984e-12
1.62656346522309e-12
9.6974213067508e-13
2.34044540648707e-13
1.23326711245804e-14
1.13888210073679e-12
5.81943152184321e-11
2.50800320285485e-10
4.25531652933818e-10
5.6335616511888e-10
6.6116956290325e-10
7.24035303683013e-10
7.60828303682271e-10
7.80548826042703e-10
7.9028414144098e-10
7.94735270818495e-10
7.96630039598799e-10
7.97384599295403e-10
7.9766687821314e-10
7.97766367098966e-10
7.9779940495066e-10
7.97809656925256e-10
7.97812520510067e-10
7.97813127059933e-10
7.97813103294578e-10
7.97812934295826e-10
7.97812757879102e-10
7.97812604050584e-10
7.97812479651703e-10
7.97812386562491e-10
7.97812326877837e-10
7.97812307031936e-10
7.97812315663143e-10
7.97812327475495e-10
7.97812353354373e-10
7.97812343761067e-10
7.97812069642375e-10
7.9781079750923e-10
7.97806352093e-10
7.97792139901191e-10
7.97749411554101e-10
7.97627572912314e-10
7.97297693609493e-10
7.96451268388226e-10
7.94399941258509e-10
7.89723651343702e-10
7.79743220582487e-10
7.59903365227586e-10
7.23372284678169e-10
6.6142748258133e-10
5.65260813106328e-10
4.29343581875038e-10
2.55518109441573e-10
6.03421619361558e-11
1.20929762530346e-12
4.01425464289481e-12
1.03897677478144e-09
3.50801788925447e-07
5.9295954239999e-07
7.82474583516982e-07
9.16644991206286e-07
1.00297025454443e-06
1.05368373479174e-06
1.08102011739671e-06
1.09460892346307e-06
1.10086990157516e-06
1.10355686222326e-06
1.10463591036791e-06
1.10504304763776e-06
1.10518780852188e-06
1.1052363331626e-06
1.1052515635825e-06
1.10525589980943e-06
1.10525687222604e-06
1.10525688806273e-06
1.10525667793312e-06
1.10525644704662e-06
1.10525624341036e-06
1.10525607817371e-06
1.1052559541972e-06
1.10525587450348e-06
1.10525584803174e-06
1.10525585732966e-06
1.10525587115601e-06
1.10525590054758e-06
1.10525587151138e-06
1.10525544376254e-06
1.10525355485849e-06
1.10524705505806e-06
1.10522643718159e-06
1.10516483197762e-06
1.10499016669134e-06
1.1045199352015e-06
1.10332033697311e-06
1.10043015362095e-06
1.093880480171e-06
1.07998251907114e-06
1.05250334366908e-06
1.00213407191652e-06
9.1698298430515e-07
7.84894803964111e-07
5.97787356268629e-07
3.56777937055672e-07
1.07325941430095e-09
4.21968961500206e-12
7.0594651757036e-12
1.8399597597519e-09
6.21241547075221e-07
1.04370089019956e-06
1.37129734079199e-06
1.60187111334655e-06
1.74975907239208e-06
1.83655094731005e-06
1.88335944292867e-06
1.90666479950078e-06
1.91742758164581e-06
1.92205965679113e-06
1.92392585450421e-06
1.92463251033617e-06
1.92488475887558e-06
1.92496969571857e-06
1.924996510646e-06
1.92500422311032e-06
1.9250060008281e-06
1.92500607242309e-06
1.92500574196924e-06
1.92500536354102e-06
1.92500502677393e-06
1.92500475237581e-06
1.92500454534418e-06
1.92500441038236e-06
1.92500436202976e-06
1.92500437117364e-06
1.9250043968752e-06
1.9250044392849e-06
1.9250043841474e-06
1.92500364684338e-06
1.92500044901162e-06
1.92498944587292e-06
1.92495450004548e-06
1.9248499113419e-06
1.92455288124603e-06
1.92375198766008e-06
1.92170611063358e-06
1.91677150833419e-06
1.90557862043555e-06
1.8818091727308e-06
1.8347717081797e-06
1.74844666175321e-06
1.60221343474063e-06
1.37459587767976e-06
1.05042180774406e-06
6.29575103428288e-07
1.88732419935857e-09
7.33957571203836e-12
9.97941894409399e-12
2.60272360050866e-09
8.74460377442107e-07
1.4612976727845e-06
1.9130090428567e-06
2.22946228388507e-06
2.43193892984966e-06
2.55068008780849e-06
2.61475152772739e-06
2.64669596379849e-06
2.66147810493694e-06
2.66785584492748e-06
2.6704327242101e-06
2.67141163514536e-06
2.67176233590127e-06
2.67188092610189e-06
2.67191857880637e-06
2.67192952135481e-06
2.67193211483608e-06
2.67193228390921e-06
2.67193187549705e-06
2.67193138684005e-06
2.67193094712484e-06
2.67193058682807e-06
2.67193031300868e-06
2.67193013092571e-06
2.67193005628411e-06
2.67193006309289e-06
2.67193010165574e-06
2.67193014200079e-06
2.67193004968439e-06
2.67192902854067e-06
2.67192470076771e-06
2.67190982186789e-06
2.67186252197094e-06
2.67172073175587e-06
2.67131734653407e-06
2.67022786158643e-06
2.66744058998184e-06
2.66070902898822e-06
2.64542341832883e-06
2.61293157251593e-06
2.54857287170955e-06
2.43032304310647e-06
2.22966704373488e-06
1.91648813129835e-06
1.46857108558286e-06
8.83539131296141e-07
2.65511075678545e-09
1.02950156039383e-11
1.26680241823721e-11
3.30527984085974e-09
1.10506827954226e-06
1.83820862971007e-06
2.39913177844867e-06
2.79064493750222e-06
3.04068677306369e-06
3.18725781418e-06
3.26639208889821e-06
3.30589867839635e-06
3.32421432811518e-06
3.33213471275002e-06
3.33534337169578e-06
3.33656593690664e-06
3.33700541904704e-06
3.33715463437051e-06
3.33720227443214e-06
3.33721626369567e-06
3.33721967409848e-06
3.33721998406609e-06
3.33721954159739e-06
3.33721898161201e-06
3.33721847061539e-06
3.33721804882772e-06
3.33721772541417e-06
3.33721750530875e-06
3.33721739949908e-06
3.33721739748e-06
3.33721744232095e-06
3.33721747587568e-06
3.33721732984686e-06
3.33721604162473e-06
3.33721073858532e-06
3.33719254524846e-06
3.33713469520527e-06
3.33696106989962e-06
3.33646638305614e-06
3.33512833514317e-06
3.33170055444304e-06
3.32341245519882e-06
3.30457390785605e-06
3.26449632638365e-06
3.18504948537324e-06
3.03894298363859e-06
2.79068790156472e-06
2.40239978085265e-06
1.84521584668639e-06
1.1139045921926e-06
3.35778189232087e-09
1.29944830335442e-11
1.50683019733234e-11
3.9337439501656e-09
1.30969588404094e-06
2.17018978995381e-06
2.82532663878561e-06
3.28127525162225e-06
3.57207535679292e-06
3.74250454113274e-06
3.83457960926293e-06
3.88060511042895e-06
3.90198014239016e-06
3.91124309510396e-06
3.91500482950686e-06
3.91644210401578e-06
3.91696040886907e-06
3.91713706157801e-06
3.91719376330948e-06
3.91721058054992e-06
3.91721479645433e-06
3.91721528784852e-06
3.91721485099823e-06
3.91721425634244e-06
3.91721370404893e-06
3.91721324392266e-06
3.91721288735928e-06
3.91721263895723e-06
3.91721250534267e-06
3.91721248914627e-06
3.91721252431347e-06
3.91721254994922e-06
3.91721233253206e-06
3.91721078514779e-06
3.91720464685152e-06
3.91718364601013e-06
3.9171168960874e-06
3.91691639321577e-06
3.91634443009927e-06
3.91479540447072e-06
3.91082251452831e-06
3.90120666734181e-06
3.87933175733743e-06
3.83276185301515e-06
3.74038628906413e-06
3.57038201892423e-06
3.2812288300583e-06
2.82824131503884e-06
2.17652774695974e-06
1.31776419959112e-06
3.98358420600161e-09
1.53905448232491e-11
1.71520463459521e-11
4.48089295599685e-09
1.48683840916484e-06
2.45587790667777e-06
3.19076490158834e-06
3.70107432666667e-06
4.02623293179531e-06
4.216796193856e-06
4.31981950189605e-06
4.37137996608082e-06
4.39536416121504e-06
4.40577802926373e-06
4.41001664990222e-06
4.41164026242834e-06
4.4122274821974e-06
4.41242833980946e-06
4.4124931366504e-06
4.41251253458108e-06
4.4125175323203e-06
4.41251824082662e-06
4.41251783833593e-06
4.41251724041419e-06
4.41251667286809e-06
4.41251619464085e-06
4.41251581940294e-06
4.41251555159339e-06
4.41251539561027e-06
4.41251535580161e-06
4.41251537324972e-06
4.41251537907389e-06
4.41251506919776e-06
4.41251329143355e-06
4.41250643715403e-06
4.41248308399077e-06
4.41240892572043e-06
4.41218605404149e-06
4.41154965134946e-06
4.40982425678729e-06
4.40539458803159e-06
4.39466385994373e-06
4.37023522342576e-06
4.31819830660204e-06
4.21492599632315e-06
4.02476419001669e-06
3.7010796912835e-06
3.19337205895723e-06
2.46145913305891e-06
1.49395838999996e-06
4.52685306555118e-09
1.74620619841314e-11
1.89135849430741e-11
4.94506577249364e-09
1.63656709915822e-06
2.69624226425586e-06
3.49738864732563e-06
4.05277076445823e-06
4.40641960352189e-06
4.61370564428629e-06
4.72584806132064e-06
4.78203615852948e-06
4.80821170197845e-06
4.81959720489182e-06
4.82424076326865e-06
4.82602362304101e-06
4.82667017120547e-06
4.8268920525765e-06
4.82696396832405e-06
4.8269856823241e-06
4.82699141942449e-06
4.82699235954512e-06
4.82699202482691e-06
4.82699144870181e-06
4.82699088690464e-06
4.82699040700564e-06
4.82699002496104e-06
4.8269897451545e-06
4.82698957024258e-06
4.82698950060663e-06
4.82698949471122e-06
4.82698946990466e-06
4.82698906281071e-06
4.82698707882947e-06
4.82697961159465e-06
4.82695431138535e-06
4.82687407396355e-06
4.82663286668217e-06
4.82594356381882e-06
4.82407306661744e-06
4.8192667851066e-06
4.80761514047266e-06
4.78107402448935e-06
4.72451005879507e-06
4.61220832951243e-06
4.40533495662677e-06
4.05300567828084e-06
3.49985672075887e-06
2.70119510435436e-06
1.64279946577414e-06
4.98704029768993e-09
1.92086250001092e-11
2.03649595663349e-11
5.32906124895213e-09
1.76019815236907e-06
2.8940305515398e-06
3.74920700705152e-06
4.34130861547053e-06
4.71818670678932e-06
4.93913654044681e-06
5.0587533985916e-06
5.11874954229279e-06
5.14673670621964e-06
5.15892968754024e-06
5.16391172718661e-06
5.16582855655636e-06
5.166525379881e-06
5.16676523412158e-06
5.16684331033028e-06
5.16686706998627e-06
5.16687348927969e-06
5.16687466730057e-06
5.16687442010926e-06
5.16687388387392e-06
5.16687334342098e-06
5.16687287428303e-06
5.16687249461092e-06
5.16687220889726e-06
5.16687201850816e-06
5.16687191997296e-06
5.16687188273376e-06
5.16687180288931e-06
5.16687131065213e-06
5.16686914804883e-06
5.16686116351205e-06
5.16683427352067e-06
5.16674912392291e-06
5.16649312826194e-06
5.1657611125496e-06
5.16377323002203e-06
5.15866167861776e-06
5.14626231290279e-06
5.11800378953129e-06
5.05775615117763e-06
4.93810324416597e-06
4.71762021893964e-06
4.34195600241697e-06
3.75176481517082e-06
2.89860650605796e-06
1.76575044365919e-06
5.36766524913479e-09
2.06459035838337e-11
2.15311797116214e-11
5.63900537589285e-09
1.85995498156429e-06
3.05324209088152e-06
3.95165107214148e-06
4.5731346432943e-06
4.96862734685524e-06
5.20055459178419e-06
5.32619697894024e-06
5.38927573125026e-06
5.41873639449198e-06
5.43158964211709e-06
5.43685007508436e-06
5.43887780190232e-06
5.43961654437977e-06
5.43987151512226e-06
5.439954834714e-06
5.43998037116592e-06
5.4399874069887e-06
5.4399888166827e-06
5.43998866678178e-06
5.43998818196061e-06
5.43998767316235e-06
5.43998722325218e-06
5.43998685248029e-06
5.43998656558127e-06
5.43998636312594e-06
5.43998623980693e-06
5.43998616588392e-06
5.43998603385227e-06
5.43998546224761e-06
5.43998313535839e-06
5.43997471951363e-06
5.43994655075769e-06
5.43985749675254e-06
5.43958977643844e-06
5.43882387147318e-06
5.43674269388563e-06
5.43138808559811e-06
5.41839246017692e-06
5.38876280004869e-06
5.32557189768921e-06
5.2000428436725e-06
4.96867896360779e-06
4.57435622470672e-06
3.95453524700336e-06
3.05773762551093e-06
1.86510151895733e-06
5.67523282189232e-09
2.18010505045075e-11
2.24455880527519e-11
5.8832192115326e-09
1.93863947031189e-06
3.17863513299725e-06
4.11098223523871e-06
4.75555050643441e-06
5.16569789109986e-06
5.40629278257223e-06
5.5367104936993e-06
5.6022428826285e-06
5.63288215278276e-06
5.6462663905674e-06
5.65175203489102e-06
5.65387005560569e-06
5.65464317682777e-06
5.65491065211335e-06
5.65499835958001e-06
5.65502541143022e-06
5.65503299079116e-06
5.65503461787037e-06
5.65503456926449e-06
5.65503414183428e-06
5.65503367054653e-06
5.65503324502093e-06
5.65503288748224e-06
5.65503260299763e-06
5.65503239166989e-06
5.65503224721455e-06
5.65503213980447e-06
5.65503195906512e-06
5.65503131162363e-06
5.65502883978449e-06
5.65502007007106e-06
5.65499088944196e-06
5.65489878564346e-06
5.6546219353779e-06
5.65382962910427e-06
5.65167565957745e-06
5.64613109520329e-06
5.63266880329816e-06
5.60196483973077e-06
5.53646619514422e-06
5.40632806518879e-06
5.16642851101622e-06
4.75746831002269e-06
4.11439837480997e-06
3.18333262588309e-06
1.94365949539814e-06
5.91816824375037e-09
2.27083078806959e-11
2.31456045885632e-11
6.07115747192312e-09
1.99932969724627e-06
3.27528381747913e-06
4.233765283812e-06
4.89613785765405e-06
5.31761636616417e-06
5.56493532428418e-06
5.69907227545538e-06
5.76652435737535e-06
5.79809042207388e-06
5.81189451494238e-06
5.81755930401607e-06
5.8197496184374e-06
5.82055046501343e-06
5.82082811126502e-06
5.82091942820825e-06
5.82094774889571e-06
5.82095579691338e-06
5.82095762170267e-06
5.82095767215738e-06
5.82095730334168e-06
5.82095687176481e-06
5.82095647305381e-06
5.82095613124429e-06
5.82095585178298e-06
5.82095563449989e-06
5.820955472515e-06
5.82095533555368e-06
5.820955110786e-06
5.82095439510812e-06
5.82095179949269e-06
5.82094274486637e-06
5.8209127775052e-06
5.82081833444133e-06
5.82053450608771e-06
5.81972201701506e-06
5.81751232446923e-06
5.81182212079256e-06
5.79800154846367e-06
5.76647193927335e-06
5.69919849090969e-06
5.56551441735656e-06
5.31904730779361e-06
4.89882465129315e-06
4.23786423365002e-06
3.28041320287306e-06
2.00446542075321e-06
6.10583476452747e-09
2.34050688754408e-11
2.36691458505932e-11
6.21249752453739e-09
2.04512330773902e-06
3.34820725999411e-06
4.32642968543865e-06
5.00228038716354e-06
5.43236225753822e-06
5.68480517460611e-06
5.82178828191581e-06
5.8907163872227e-06
5.92299877239506e-06
5.93712921062722e-06
5.94293409585217e-06
5.94518131923462e-06
5.94600415012144e-06
5.94628992987758e-06
5.94638416515935e-06
5.94641352911485e-06
5.9464219727533e-06
5.94642397205374e-06
5.94642411468458e-06
5.94642380211859e-06
5.94642340971405e-06
5.94642303818276e-06
5.94642271318299e-06
5.94642244054841e-06
5.94642221995455e-06
5.94642204410619e-06
5.94642188218825e-06
5.94642161934303e-06
5.94642084507077e-06
5.94641814700818e-06
5.94640886771699e-06
5.94637829996861e-06
5.94628209612579e-06
5.94599303555099e-06
5.94516541304374e-06
5.94291388592124e-06
5.93711418119525e-06
5.92302387867156e-06
5.89087206058653e-06
5.82226021439247e-06
5.68590112121303e-06
5.43447884474711e-06
5.0057585278551e-06
4.33129804902555e-06
3.35392711330597e-06
2.0505570247274e-06
6.24770286660737e-09
2.39286378927159e-11
2.4051926619499e-11
6.31643793375493e-09
2.07894088832051e-06
3.4020886767229e-06
4.39493906314798e-06
5.08080435448446e-06
5.51730037077869e-06
5.77357850221727e-06
5.91270144499188e-06
5.98274476557628e-06
6.01557128632705e-06
6.02995106390623e-06
6.035863653066e-06
6.03815491966037e-06
6.03899488943301e-06
6.03928706366493e-06
6.03938361804403e-06
6.03941382426503e-06
6.0394225948267e-06
6.03942474431816e-06
6.03942496995481e-06
6.03942470860707e-06
6.03942435295394e-06
6.0394240075264e-06
6.03942369938577e-06
6.03942343473683e-06
6.03942321317494e-06
6.03942302709356e-06
6.03942284516591e-06
6.03942255092591e-06
6.03942172843595e-06
6.03941894820707e-06
6.03940949570765e-06
6.03937847868489e-06
6.0392809749321e-06
6.03898806703069e-06
6.03814931780338e-06
6.03586699595763e-06
6.0299865722966e-06
6.01569718421982e-06
5.98308566208918e-06
5.91348429231216e-06
5.77514665755279e-06
5.52005864380126e-06
5.08505133928897e-06
4.40060127976978e-06
3.4084832987845e-06
2.08478812745963e-06
6.3527189307767e-09
2.43138411332469e-11
2.43257052338311e-11
6.39122851723274e-09
2.10339451493699e-06
3.4410905462924e-06
4.4445755921826e-06
5.13774511311385e-06
5.57893691852272e-06
5.8380347299296e-06
5.97873830794867e-06
6.04960964731185e-06
6.08284242057143e-06
6.09740946258901e-06
6.10340345453903e-06
6.10572823454517e-06
6.10658134188828e-06
6.10687845901906e-06
6.10697682495504e-06
6.10700769899356e-06
6.10701673394844e-06
6.10701901066425e-06
6.10701930982596e-06
6.10701909210886e-06
6.10701876965558e-06
6.10701844838721e-06
6.10701815649953e-06
6.10701790053326e-06
6.10701768004926e-06
6.10701748720497e-06
6.10701729023361e-06
6.10701697144232e-06
6.10701611097514e-06
6.10701326701979e-06
6.10700368423272e-06
6.10697233793046e-06
6.10687389344291e-06
6.10657821204461e-06
6.10573144254487e-06
6.10342689783137e-06
6.09748814198306e-06
6.0830547003092e-06
6.05011021109567e-06
5.97979160090765e-06
5.8400191748293e-06
5.58227210721933e-06
5.14270347045612e-06
4.45100395900248e-06
3.44817838561902e-06
2.10970887152534e-06
6.4288880075774e-09
2.45915102147174e-11
2.45173889892992e-11
6.44391833551269e-09
2.12071759470778e-06
3.46875948459864e-06
4.47983172778455e-06
5.17823154022591e-06
5.62279962175759e-06
5.88393396106301e-06
6.02578480473406e-06
6.09726035498531e-06
6.13079127210917e-06
6.145496582998e-06
6.15155106797838e-06
6.15390092403863e-06
6.15476393458533e-06
6.15506480910998e-06
6.15516456644223e-06
6.15519596081556e-06
6.15520520531107e-06
6.15520758596871e-06
6.15520794650609e-06
6.15520776881087e-06
6.15520747567807e-06
6.15520717621246e-06
6.15520689960158e-06
6.15520665268236e-06
6.1552064350119e-06
6.15520623856969e-06
6.15520603123887e-06
6.15520569440898e-06
6.15520480546123e-06
6.1552019138973e-06
6.15519223576904e-06
6.15516065346843e-06
6.15506154208655e-06
6.15476390118589e-06
6.15391146499482e-06
6.15159119962453e-06
6.14561111957325e-06
6.13107549275879e-06
6.09789456168201e-06
6.02706623046049e-06
5.88627356858355e-06
5.62663498500748e-06
5.18382060787481e-06
4.48696058561762e-06
3.47650801319655e-06
2.12750257730505e-06
6.48305458489525e-09
2.47877468035091e-11
2.46488442316368e-11
6.48028258678719e-09
2.13274552273313e-06
3.48800533833186e-06
4.50439082651346e-06
5.20646832448769e-06
5.65342095144912e-06
5.91600051775072e-06
6.05866973401693e-06
6.13057867353805e-06
6.16432470661383e-06
6.1791304042708e-06
6.18522909829582e-06
6.18759740818755e-06
6.18846776147967e-06
6.18877144552963e-06
6.18887225404265e-06
6.1889040471184e-06
6.18891345519144e-06
6.1889159187101e-06
6.18891633066553e-06
6.18891618760439e-06
6.18891591992851e-06
6.18891563985047e-06
6.18891537741065e-06
6.18891513970572e-06
6.1889149263052e-06
6.18891472906279e-06
6.18891451558828e-06
6.1889141666127e-06
6.18891325759669e-06
6.18891033205794e-06
6.1889005864091e-06
6.1888688391568e-06
6.18876926527173e-06
6.18847026845687e-06
6.18761390908111e-06
6.18528274418924e-06
6.17927396777511e-06
6.1646672811162e-06
6.13132173677412e-06
6.06013821134936e-06
5.91863411838303e-06
5.65767583182543e-06
5.21259582672766e-06
4.51213163988215e-06
3.49634811306217e-06
2.1399692561155e-06
6.5208443870519e-09
2.49238052006154e-11
2.47371877037513e-11
6.50487885843898e-09
2.14093351726052e-06
3.50113452524643e-06
4.52117280762085e-06
5.22578998498374e-06
5.6743971157981e-06
5.93798452903417e-06
6.08122753687661e-06
6.15344209179656e-06
6.18734074366445e-06
6.20221811983528e-06
6.20834859286943e-06
6.21073026231555e-06
6.21160597193295e-06
6.2119117230212e-06
6.21201331300486e-06
6.21204540672339e-06
6.21205494087302e-06
6.21205746983744e-06
6.21205792379029e-06
6.21205780996538e-06
6.21205756414121e-06
6.21205730117684e-06
6.2120570518151e-06
6.21205682336719e-06
6.21205661542819e-06
6.21205641976381e-06
6.2120562037835e-06
6.21205584775275e-06
6.21205492583176e-06
6.21205197751106e-06
6.21204218602488e-06
6.21201032690956e-06
6.21191044007454e-06
6.21161052572566e-06
6.21075150747452e-06
6.20841294089443e-06
6.20238463971171e-06
6.18772952372244e-06
6.15427163639884e-06
6.08284543567643e-06
5.94085485015675e-06
5.67899345415492e-06
5.23236195073267e-06
4.52942777369086e-06
3.50998728080638e-06
2.14854317690895e-06
6.54672165618994e-09
2.50164011246552e-11
2.47953675277549e-11
6.52118258777877e-09
2.14639771694932e-06
3.50991721206577e-06
4.53242036238757e-06
5.23875965572072e-06
5.68849439853927e-06
5.95277239414722e-06
6.09641080424509e-06
6.16883722612767e-06
6.20284234935175e-06
6.21777006160469e-06
6.22392300588085e-06
6.22631419073499e-06
6.22719374517645e-06
6.2275009930113e-06
6.22760315494078e-06
6.22763547195446e-06
6.22764510210892e-06
6.22764768238582e-06
6.22764817021211e-06
6.22764808075925e-06
6.22764785361621e-06
6.22764760577392e-06
6.22764736851537e-06
6.2276471493243e-06
6.22764694782348e-06
6.22764675572422e-06
6.22764654029459e-06
6.22764618147875e-06
6.22764525258267e-06
6.22764229046706e-06
6.22763246976563e-06
6.22760053785694e-06
6.22750044569308e-06
6.22719992651952e-06
6.22633914898235e-06
6.22399566908679e-06
6.21795437158524e-06
6.20326694628799e-06
6.16973397156607e-06
6.09814532922195e-06
5.95582869420503e-06
5.69336138780644e-06
5.24568792628408e-06
4.54109321197359e-06
3.51919111126403e-06
2.15433177080025e-06
6.56411705932931e-09
2.50782714767845e-11
2.48328665667293e-11
6.53175929004351e-09
2.1499674423415e-06
3.51567048985487e-06
4.53980418433326e-06
5.24728882290894e-06
5.6977776834619e-06
5.9625202003372e-06
6.10642619674224e-06
6.17899691414239e-06
6.21307503481355e-06
6.22803749718349e-06
6.23420606667418e-06
6.236603917957e-06
6.23748618781917e-06
6.23779450237025e-06
6.23789707653431e-06
6.23792955704465e-06
6.23793925935796e-06
6.23794187951707e-06
6.2379423947733e-06
6.2379423255923e-06
6.23794211449365e-06
6.23794188009782e-06
6.23794165411146e-06
6.23794144415336e-06
6.23794124987478e-06
6.23794106295743e-06
6.23794085057168e-06
6.23794049245268e-06
6.23793956136659e-06
6.2379365925369e-06
6.23792675521538e-06
6.23789477899469e-06
6.23779455813366e-06
6.23749365443813e-06
6.23663174874829e-06
6.23428509877233e-06
6.22823537649367e-06
6.21352692909789e-06
6.17994495388721e-06
6.10825005201087e-06
5.9657197149437e-06
5.70285460820133e-06
5.25449601449271e-06
4.54880775062368e-06
3.52528180241297e-06
2.15816487044394e-06
6.57558853351154e-09
2.51188369839495e-11
2.48564074314419e-11
6.53844175340662e-09
2.15223931054181e-06
3.51934372392947e-06
4.54453044934671e-06
5.25275938016797e-06
5.7037414052979e-06
5.96878969334342e-06
6.11287303067544e-06
6.18554005930956e-06
6.21966726028553e-06
6.23465326391713e-06
6.24083250127467e-06
6.24323494089557e-06
6.24411909588306e-06
6.24442815824155e-06
6.24453102497746e-06
6.24456362360206e-06
6.24457337951192e-06
6.24457603045284e-06
6.24457656787515e-06
6.24457651597327e-06
6.24457631882544e-06
6.24457609652927e-06
6.24457588115397e-06
6.24457568041832e-06
6.24457549400393e-06
6.24457531357788e-06
6.24457510625187e-06
6.24457475162959e-06
6.24457382216895e-06
6.24457085216205e-06
6.2445610077599e-06
6.24452900806075e-06
6.24442871318955e-06
6.24412758007151e-06
6.24326498741548e-06
6.24091638104296e-06
6.23486140871048e-06
6.22013976378812e-06
6.18652684834902e-06
6.11476454287851e-06
5.97209814315798e-06
5.70897897190527e-06
5.26018161366849e-06
4.55379125657297e-06
3.52922006615832e-06
2.16064579625714e-06
6.58298678242217e-09
2.51448633045551e-11
2.4870582914037e-11
6.54249133676938e-09
2.15362689560854e-06
3.52159663828432e-06
4.54743902067094e-06
5.25613513090784e-06
5.70742922633848e-06
5.97267261546936e-06
6.11687007910625e-06
6.18959963859671e-06
6.22375899067428e-06
6.23876055591856e-06
6.24494691048598e-06
6.24735244035466e-06
6.24823787768206e-06
6.24854745448047e-06
6.24865052540141e-06
6.24868320823392e-06
6.24869300363849e-06
6.24869567822609e-06
6.24869623376631e-06
6.2486961967595e-06
6.24869601188447e-06
6.24869580061754e-06
6.24869559532287e-06
6.24869540379956e-06
6.24869522575249e-06
6.24869505285027e-06
6.24869485217118e-06
6.2486945032504e-06
6.24869357840592e-06
6.24869061153264e-06
6.24868076735663e-06
6.24864875977243e-06
6.24854843093882e-06
6.24824718011785e-06
6.24738421451394e-06
6.24503450802143e-06
6.23897651036571e-06
6.22424712205461e-06
6.19061580232274e-06
6.11881297344248e-06
5.97606407947194e-06
5.71278981539133e-06
5.26372308438954e-06
4.55689953397938e-06
3.53168041799553e-06
2.16219848686738e-06
6.58760672375495e-09
2.51610534126032e-11
2.48783718159713e-11
6.54473159511504e-09
2.1544022071279e-06
3.5228645029726e-06
4.54908545440105e-06
5.25805495650994e-06
5.70953411419515e-06
5.97489476046754e-06
6.11916175270781e-06
6.19192994043613e-06
6.22610942129873e-06
6.24112086017184e-06
6.2473117908655e-06
6.24971933409767e-06
6.25060561828484e-06
6.25091553994097e-06
6.2510187503605e-06
6.25105149237491e-06
6.25106131678747e-06
6.25106400968938e-06
6.25106458025116e-06
6.25106455618486e-06
6.25106438222986e-06
6.25106418115515e-06
6.25106398552763e-06
6.25106380320534e-06
6.25106363391828e-06
6.25106346933861e-06
6.25106327653013e-06
6.25106293501089e-06
6.2510620171013e-06
6.25105905673356e-06
6.25104921855853e-06
6.25101721543258e-06
6.25091688397149e-06
6.25061560131314e-06
6.24975249976755e-06
6.24740232894834e-06
6.24134293488789e-06
6.22660974998712e-06
6.19296900950352e-06
6.12114476709241e-06
5.97835121706416e-06
5.71499141084204e-06
5.26577386998102e-06
4.55870477652068e-06
3.53311442546662e-06
2.16310716288398e-06
6.59031402460205e-09
2.51705358646213e-11
2.48815220133342e-11
6.54564914613553e-09
2.15472720448415e-06
3.52340767342694e-06
4.54980324976764e-06
5.25890359705927e-06
5.71047448164454e-06
5.97589524522056e-06
6.12019907326101e-06
6.19298840535164e-06
6.22717922939415e-06
6.24219639252253e-06
6.24839005008566e-06
6.25079882604217e-06
6.25168564391081e-06
6.25199579069144e-06
6.25209909691376e-06
6.25213188289181e-06
6.25214173129119e-06
6.25214444090941e-06
6.25214502605479e-06
6.2521450147008e-06
6.25214485150531e-06
6.25214466061678e-06
6.25214447462869e-06
6.25214430144792e-06
6.25214414082835e-06
6.25214398444074e-06
6.25214379934248e-06
6.25214346506566e-06
6.25214255405188e-06
6.25213960065637e-06
6.25212977069028e-06
6.25209777969824e-06
6.25199746959406e-06
6.2516962255074e-06
6.25083318444897e-06
6.24848307067575e-06
6.24242359331901e-06
6.2276897370668e-06
6.19404657295683e-06
6.12221558846202e-06
5.97940608098545e-06
5.71601295693666e-06
5.26673291071442e-06
4.55955711675436e-06
3.53379914926757e-06
2.16354674077813e-06
6.59164159287577e-09
2.51752338075558e-11
2.48807938249699e-11
6.54545790350602e-09
2.15467450750716e-06
3.52334460941066e-06
4.5497457124527e-06
5.25885935710743e-06
5.71044547354945e-06
5.9758798525031e-06
6.12019411622127e-06
6.19299055530909e-06
6.22718575471184e-06
6.24220539127104e-06
6.24840034459925e-06
6.25080975809899e-06
6.25169687608243e-06
6.25200716227922e-06
6.2521105358343e-06
6.25214335820349e-06
6.25215323010657e-06
6.25215595808672e-06
6.25215655970667e-06
6.25215656236834e-06
6.2521564109112e-06
6.25215623091957e-06
6.25215605485212e-06
6.25215589065537e-06
6.2521557381031e-06
6.25215558886344e-06
6.25215540998224e-06
6.25215508102548e-06
6.25215417466902e-06
6.25215122610158e-06
6.25214140361587e-06
6.25210942939568e-06
6.25200916183549e-06
6.25170802419934e-06
6.25084523541594e-06
6.24849568157412e-06
6.24243736171792e-06
6.22770572156627e-06
6.19406645940971e-06
6.12224173556094e-06
5.97944126536189e-06
5.71605963506476e-06
5.26679191739683e-06
4.55962588693448e-06
3.53386964926236e-06
2.16360327631825e-06
6.59185429565308e-09
2.51761120864395e-11
2.4876093710425e-11
6.54413508759633e-09
2.15423829550829e-06
3.52266843274177e-06
4.54890669679571e-06
5.25791766725352e-06
5.70944433812372e-06
5.97484749618398e-06
6.11914710404558e-06
6.19193751515612e-06
6.22613069537135e-06
6.24114987395575e-06
6.24734485667902e-06
6.24975439043934e-06
6.25064160846226e-06
6.25095196105023e-06
6.25105537720084e-06
6.2510882286202e-06
6.25109812259844e-06
6.2511008693766e-06
6.25110148814778e-06
6.25110150526838e-06
6.25110136584901e-06
6.25110119693795e-06
6.25110103076789e-06
6.25110087531096e-06
6.25110073036226e-06
6.2511005875819e-06
6.25110041401646e-06
6.25110008930862e-06
6.25109918652529e-06
6.25109624223096e-06
6.25108642887343e-06
6.25105448014262e-06
6.25095428438051e-06
6.25065333846688e-06
6.24979103206281e-06
6.24744262332907e-06
6.2413868693256e-06
6.22666065050002e-06
6.19303216959217e-06
6.12122758367727e-06
5.97846237678798e-06
5.71513855729389e-06
5.26595951529905e-06
4.55892075629159e-06
3.53333549534619e-06
2.16328406299911e-06
6.59097889720205e-09
2.51732790007398e-11
2.48664929913206e-11
6.54142431512756e-09
2.15333448572634e-06
3.52124687599418e-06
4.54712034270208e-06
5.2558907940236e-06
5.7072702079206e-06
5.97259009783715e-06
6.11684637121143e-06
6.18961606541655e-06
6.22380018460373e-06
6.23881574733845e-06
6.24500942713787e-06
6.24741854971088e-06
6.24830566635937e-06
6.24861601245308e-06
6.24871944587786e-06
6.24875231782525e-06
6.24876223105479e-06
6.24876499564994e-06
6.24876563106863e-06
6.2487656622267e-06
6.24876553447649e-06
6.24876537633485e-06
6.24876521977477e-06
6.24876507277305e-06
6.24876493515203e-06
6.2487647985762e-06
6.24876463011239e-06
6.24876430954873e-06
6.24876341057561e-06
6.24876047188095e-06
6.24875067231637e-06
6.24871876355017e-06
6.24861868161446e-06
6.24831804335656e-06
6.24745652404599e-06
6.24511002297242e-06
6.23905864742641e-06
6.22434192976214e-06
6.19073289557793e-06
6.11896575568069e-06
5.97626822071134e-06
5.71305896779094e-06
5.26406145476571e-06
4.55729193160712e-06
3.53208091014148e-06
2.16251804313454e-06
6.58880882109419e-09
2.51660334853986e-11
2.48500708485117e-11
6.53679664353386e-09
2.15179008398694e-06
3.51880622471844e-06