/*--------------------------------*- C++ -*----------------------------------*\
  =========                 |
  \\      /  F ield         | OpenFOAM: The Open Source CFD Toolbox
   \\    /   O peration     | Website:  https://openfoam.org
    \\  /    A nd           | Version:  10
     \\/     M anipulation  |
\*---------------------------------------------------------------------------*/
FoamFile
{
    format      ascii;
    class       volScalarField;
    location    "4.8";
    object      omega;
}
// * * * * * * * * * * * * * * * * * * * * * * * * * * * * * * * * * * * * * //

dimensions      [0 0 -1 0 0 0 0];

internalField   nonuniform List<scalar> 
2500
(
128131.037586578
128144.178882715
128139.296991113
128136.386895028
128134.901089198
128134.181991886
128133.846908462
128133.696892379
128133.632744532
128133.607045713
128133.59658121
128133.592524074
128133.590954896
128133.590040624
128133.589424897
128133.58883187
128133.588542119
128133.5881884
128133.587790264
128133.587518686
128133.587282593
128133.587075535
128133.586902648
128133.586801406
128133.586690691
128133.586589922
128133.586554653
128133.5865329
128133.586537454
128133.586577903
128133.586648624
128133.586785812
128133.586950898
128133.58715945
128133.58740031
128133.587706959
128133.588158659
128133.588868736
128133.590756352
128133.595102337
128133.606085427
128133.633525753
128133.699649914
128133.851751704
128134.188046641
128134.901878112
128136.378469836
128139.296353115
128144.23339951
128130.993067284
31890.6101717832
14171.1677186032
14168.8722618113
14167.4893438608
14166.7460488535
14166.3652058241
14166.1774269898
14166.0890835495
14166.0497432188
14166.033231711
14166.0266661342
14166.0241963944
14166.023313633
14166.022997351
14166.0228770306
14166.0228195319
14166.0227933333
14166.0227707115
14166.0227472737
14166.0227290459
14166.022712042
14166.0226952642
14166.0226805982
14166.0226715797
14166.0226637969
14166.0226561916
14166.0226527444
14166.0226501137
14166.0226473111
14166.0226486211
14166.0226517415
14166.0226568067
14166.0226714046
14166.0226924616
14166.0227166214
14166.0227655583
14166.0228963097
14166.0232585649
14166.0242791366
14166.0270194854
14166.0340909201
14166.0514563689
14166.0918920154
14166.1811417272
14166.3686118601
14166.7466175477
14167.4860969959
14168.8751252164
14171.2032138712
31890.593595267
31768.0866591999
3528.88691669179
50.8052306407076
50.7988959002132
50.7955099953993
50.793778571758
50.7929244878632
50.792521609924
50.7923414452337
50.7922653972996
50.7922350623512
50.7922236301353
50.7922195573789
50.7922181565959
50.7922176787432
50.7922175038811
50.7922174401638
50.7922173995938
50.7922173604837
50.7922173278054
50.7922172934871
50.7922172545897
50.7922172180024
50.7922171955374
50.792217179399
50.7922171626424
50.7922171548805
50.7922171477561
50.7922171358612
50.7922171345746
50.7922171347244
50.7922171328242
50.7922171730737
50.7922172390171
50.7922173094604
50.7922174887536
50.7922180411704
50.7922196641727
50.7922242814339
50.7922367932601
50.7922691187576
50.7923484056983
50.7925326699952
50.7929387229806
50.7937910931984
50.7955120346306
50.7988891026
50.8052725063121
3528.90373066879
31768.238217044
31670.1534220928
3517.98776167593
50.6493508196984
50.6438569694286
50.6410254892021
50.6396262811602
50.6389555323785
50.6386459534036
50.6385096941889
50.6384528249986
50.6384303345464
50.6384219181758
50.6384189451278
50.6384179413219
50.6384176140171
50.6384175100722
50.6384174812176
50.6384174679227
50.638417455451
50.6384174436973
50.6384174282699
50.6384174066638
50.638417383826
50.6384173695946
50.6384173615427
50.6384173528855
50.6384173489805
50.6384173448621
50.6384173362115
50.6384173334191
50.6384173296677
50.6384173186927
50.6384173427719
50.6384173857647
50.6384174238814
50.638417535601
50.638417907471
50.6384190397677
50.6384223183338
50.6384313380121
50.6384549595142
50.6385137246182
50.6386524962671
50.6389642337003
50.6396345408851
50.6410293201228
50.6438645127426
50.649425518787
3518.00916330755
31670.4837045037
31602.0066263977
3510.5893429562
50.5453930174047
50.5415141686471
50.5395864221813
50.5386655894259
50.5382362373707
50.5380419807482
50.5379575858224
50.5379226347975
50.5379088709202
50.5379037330742
50.5379019249379
50.5379013203197
50.5379011294073
50.5379010775113
50.5379010697566
50.5379010691959
50.5379010685607
50.5379010670143
50.5379010625653
50.5379010527703
50.5379010399865
50.5379010318526
50.5379010288623
50.5379010256972
50.5379010242699
50.5379010223336
50.537901017542
50.53790101511
50.5379010107325
50.5379009988791
50.537901010396
50.5379010315221
50.5379010465346
50.5379011071081
50.5379013187558
50.5379019768645
50.5379039108575
50.5379092883183
50.5379235043616
50.5379592388866
50.5380446977882
50.538239882506
50.538669076007
50.5395888710948
50.5415256751465
50.5454696478686
3510.60984038553
31602.4071975628
31559.8388518
3506.13738391157
50.4839076634644
50.4815492783114
50.4804160774595
50.4798915845637
50.4796532401035
50.4795473016048
50.4795017559498
50.4794829863423
50.4794756032476
50.4794728457937
50.4794718761944
50.4794715539084
50.4794714565075
50.4794714356022
50.4794714362366
50.4794714390435
50.4794714409164
50.4794714414871
50.4794714415607
50.479471438746
50.4794714322272
50.4794714280983
50.4794714277185
50.4794714273924
50.4794714271347
50.4794714263332
50.4794714242254
50.4794714225505
50.4794714189992
50.4794714100549
50.479471414388
50.4794714221556
50.4794714250412
50.4794714549033
50.4794715629221
50.4794719010048
50.4794729077351
50.4794757276038
50.4794832262251
50.4795022050287
50.4795480203202
50.479654106921
50.4798921054073
50.4804163521777
50.4815574728926
50.4839653593765
3506.15327533282
31560.1994632454
31536.257538483
3503.72060432735
50.4510776951751
50.4498028600153
50.4492087863995
50.4489416171127
50.4488230464209
50.4487711790145
50.4487490693615
50.4487399836364
50.4487364062011
50.4487350667138
50.4487345952764
50.4487344394404
50.4487343951097
50.4487343881405
50.4487343901539
50.4487343931546
50.448734395457
50.4487343961248
50.4487343968965
50.4487343967938
50.448734393848
50.4487343922084
50.4487343928978
50.4487343933288
50.4487343932668
50.4487343929785
50.4487343921806
50.4487343911773
50.4487343888475
50.4487343833036
50.4487343844365
50.4487343861897
50.4487343857239
50.4487343996638
50.4487344494016
50.4487346073537
50.4487350840001
50.448736425605
50.4487400035991
50.4487490939141
50.4487711807311
50.4488228953246
50.4489409936463
50.4492077762979
50.4498065361057
50.4511127018159
3503.73105192732
31536.5236042357
31524.1846410543
3502.52061188183
50.4350311548573
50.4344053861244
50.4341217388076
50.4339974544418
50.4339434851269
50.4339202178401
50.4339103700883
50.4339063287498
50.4339047336595
50.4339041341554
50.4339039227674
50.4339038533079
50.4339038350058
50.433903833265
50.4339038347536
50.4339038368508
50.4339038385244
50.4339038393093
50.4339038397928
50.4339038399457
50.4339038390162
50.4339038385899
50.4339038392812
50.4339038397137
50.4339038397982
50.4339038397042
50.4339038393591
50.4339038388276
50.4339038375256
50.4339038345571
50.4339038346033
50.4339038346782
50.4339038338327
50.4339038396282
50.4339038607149
50.4339039291718
50.4339041383231
50.4339047286338
50.4339063035863
50.4339103095104
50.4339200808745
50.4339431615773
50.4339967018736
50.434120468279
50.4344061741297
50.4350490793655
3502.52662225232
31524.3537626839
31518.4661254783
3501.96955101221
50.4277716022814
50.4274883623662
50.4273631554315
50.4273095710401
50.4272867657145
50.427277065276
50.4272729847956
50.4272713108439
50.4272706479631
50.4272703977079
50.4272703092685
50.427270280522
50.4272702734743
50.4272702731927
50.4272702741497
50.4272702753567
50.4272702763412
50.4272702769006
50.4272702771633
50.4272702772605
50.4272702771253
50.4272702772099
50.4272702775991
50.4272702778707
50.4272702779568
50.4272702779438
50.4272702778077
50.4272702775423
50.4272702769074
50.4272702756088
50.4272702754296
50.4272702752727
50.4272702747231
50.4272702767472
50.4272702850816
50.4272703129656
50.4272703991128
50.4272706425094
50.4272712907839
50.4272729377733
50.4272769617612
50.4272865303453
50.4273090329525
50.4273621545543
50.4274879948313
50.4277795344517
3501.97264496546
31518.5615821484
31515.9382134155
3501.73337077226
50.4247044353733
50.4245848278635
50.4245331501498
50.4245115003355
50.4245024560009
50.4244986570716
50.4244970678223
50.4244964156907
50.4244961564748
50.4244960581524
50.4244960233285
50.4244960121633
50.4244960096216
50.4244960096859
50.4244960102163
50.4244960108356
50.4244960113504
50.4244960116799
50.4244960118634
50.4244960119591
50.4244960119963
50.4244960121182
50.4244960123193
50.4244960124667
50.4244960125271
50.4244960125382
50.424496012496
50.4244960123856
50.4244960121116
50.4244960115797
50.4244960114325
50.4244960113115
50.4244960110454
50.4244960116874
50.4244960147784
50.4244960255882
50.4244960592149
50.4244961541735
50.4244964062185
50.4244970445682
50.4244986036639
50.4245023286729
50.4245111934973
50.4245325231061
50.4245842689284
50.4247074946637
3501.73481961091
31515.9870435925
31514.8877600717
3501.638193126
50.4234854535714
50.4234378945296
50.423417773071
50.4234095048145
50.4234061096045
50.4234047003548
50.4234041138033
50.4234038729815
50.4234037768856
50.4234037402709
50.4234037272837
50.4234037231939
50.4234037223398
50.423403722433
50.423403722702
50.4234037230003
50.4234037232541
50.4234037234333
50.4234037235529
50.4234037236299
50.4234037236873
50.4234037237744
50.4234037238796
50.4234037239606
50.4234037240043
50.4234037240266
50.4234037240262
50.4234037239925
50.4234037238929
50.4234037236959
50.4234037236229
50.4234037235629
50.4234037234652
50.4234037236505
50.4234037247414
50.4234037287592
50.423403741291
50.4234037766072
50.4234038698895
50.4234041050308
50.423404678145
50.4234060515443
50.4234093532453
50.4234174353148
50.423437478321
50.4234864723056
3501.6388181194
31514.9107364163
31514.475039376
3501.6019172493
50.4230271977686
50.423009258535
50.4230018146256
50.4229988090489
50.4229975943111
50.4229970957595
50.4229968892628
50.4229968044297
50.4229967704557
50.4229967574622
50.4229967528558
50.4229967514395
50.4229967511797
50.4229967512506
50.4229967513849
50.4229967515283
50.4229967516543
50.4229967517524
50.4229967518281
50.4229967518856
50.422996751935
50.4229967519938
50.4229967520554
50.4229967521066
50.4229967521426
50.4229967521706
50.4229967521884
50.4229967521906
50.4229967521682
50.4229967521103
50.422996752089
50.4229967520719
50.4229967520512
50.4229967521063
50.4229967524807
50.4229967539237
50.4229967584115
50.4229967710077
50.4229968040757
50.4229968869315
50.4229970881624
50.4229975710587
50.4229987417961
50.4230016521383
50.4230090178286
50.4230274777734
3501.60216805441
31514.485096664
31514.3210842625
3501.5887909337
50.4228637015017
50.4228572434564
50.4228546115604
50.4228535657463
50.4228531492052
50.4228529800684
50.4228529103496
50.4228528816988
50.4228528701928
50.4228528657848
50.4228528642314
50.4228528637737
50.4228528637127
50.4228528637632
50.4228528638356
50.4228528639109
50.4228528639801
50.4228528640394
50.4228528640909
50.4228528641355
50.4228528641767
50.4228528642204
50.422852864264
50.4228528643032
50.4228528643364
50.4228528643664
50.422852864392
50.4228528644108
50.4228528644204
50.4228528644171
50.4228528644231
50.4228528644295
50.4228528644355
50.4228528644619
50.4228528645971
50.4228528651035
50.4228528666587
50.4228528709903
50.4228528822756
50.4228529103513
50.422852978213
50.4228531410499
50.4228535385292
50.4228545402637
50.4228571236904
50.4228637547644
3501.58888530016
31514.3252161827
31514.2665078427
3501.58428367424
50.4228084321771
50.4228062022688
50.4228053086303
50.4228049586706
50.4228048211447
50.4228047658702
50.4228047432004
50.4228047338904
50.42280473015
50.4228047287231
50.4228047282317
50.4228047281027
50.4228047281049
50.4228047281438
50.4228047281902
50.4228047282377
50.4228047282834
50.422804728326
50.4228047283661
50.4228047284038
50.4228047284404
50.4228047284775
50.422804728514
50.4228047285488
50.4228047285812
50.4228047286121
50.422804728641
50.4228047286669
50.422804728689
50.4228047287062
50.4228047287248
50.4228047287424
50.4228047287591
50.4228047287808
50.4228047288375
50.4228047290174
50.4228047295453
50.4228047309904
50.4228047347152
50.4228047439038
50.4228047659828
50.4228048188885
50.422804948709
50.4228052798552
50.4228061488934
50.4228084311345
3501.58431718802
31514.2681127287
31514.2482612383
3501.58283378722
50.4227910245465
50.4227902829843
50.4227899904205
50.4227898773695
50.4227898334918
50.4227898160328
50.4227898089157
50.4227898060032
50.4227898048409
50.4227898044078
50.4227898042712
50.4227898042505
50.4227898042719
50.4227898043052
50.4227898043414
50.4227898043782
50.4227898044148
50.4227898044508
50.4227898044861
50.4227898045208
50.4227898045551
50.4227898045896
50.4227898046236
50.422789804657
50.4227898046892
50.4227898047206
50.4227898047509
50.4227898047796
50.4227898048065
50.4227898048311
50.422789804855
50.4227898048776
50.4227898048988
50.4227898049205
50.4227898049521
50.4227898050224
50.4227898052032
50.4227898056762
50.4227898068719
50.4227898097879
50.4227898167437
50.4227898333672
50.4227898743131
50.4227899798629
50.4227902613847
50.4227910170919
3501.58284509776
31514.248854221
31514.2427171681
3501.58242210041
50.4227862949969
50.422786056678
50.4227859640223
50.4227859286618
50.4227859151
50.4227859097627
50.4227859076081
50.4227859067377
50.422785906401
50.4227859062873
50.4227859062649
50.4227859062784
50.4227859063054
50.4227859063365
50.4227859063689
50.4227859064019
50.4227859064352
50.4227859064686
50.4227859065021
50.4227859065356
50.4227859065691
50.4227859066026
50.4227859066359
50.4227859066688
50.4227859067011
50.4227859067328
50.4227859067638
50.4227859067936
50.4227859068223
50.4227859068495
50.4227859068757
50.4227859069004
50.4227859069236
50.4227859069458
50.4227859069698
50.4227859070045
50.422785907072
50.4227859072285
50.4227859076059
50.4227859085077
50.4227859106365
50.4227859157027
50.4227859282119
50.422785960755
50.4227860488773
50.422786290452
3501.58242576463
31514.242926802
31514.2414383334
3501.5823492738
50.4227856448495
50.4227855706292
50.4227855421698
50.4227855314409
50.422785527379
50.4227855258055
50.4227855251846
50.4227855249453
50.4227855248644
50.4227855248499
50.422785524863
50.422785524887
50.4227855249155
50.4227855249456
50.4227855249768
50.4227855250084
50.4227855250406
50.4227855250732
50.422785525106
50.4227855251391
50.4227855251723
50.4227855252055
50.4227855252386
50.4227855252715
50.422785525304
50.4227855253359
50.4227855253672
50.4227855253976
50.422785525427
50.4227855254553
50.4227855254824
50.4227855255081
50.4227855255322
50.4227855255549
50.4227855255768
50.4227855256003
50.4227855256322
50.422785525689
50.42278552581
50.4227855260848
50.4227855267203
50.4227855282211
50.422785531931
50.4227855416605
50.4227855683883
50.4227856431527
3501.58235044087
31514.241509732
31514.2415397065
3501.58238312699
50.4227862603134
50.4227862378665
50.4227862293762
50.4227862262202
50.4227862250481
50.4227862246094
50.4227862244487
50.4227862243986
50.4227862243945
50.4227862244097
50.4227862244332
50.4227862244603
50.4227862244892
50.422786224519
50.4227862245496
50.4227862245808
50.4227862246126
50.4227862246449
50.4227862246776
50.4227862247106
50.4227862247437
50.4227862247769
50.4227862248101
50.422786224843
50.4227862248756
50.4227862249078
50.4227862249393
50.42278622497
50.4227862249998
50.4227862250286
50.4227862250562
50.4227862250824
50.4227862251071
50.4227862251301
50.4227862251516
50.4227862251721
50.4227862251933
50.4227862252199
50.4227862252631
50.4227862253486
50.4227862255355
50.4227862259688
50.4227862270381
50.4227862298631
50.4227862377348
50.4227862601886
3501.58238351792
31514.2415634216
31514.2420728161
3501.58244947256
50.4227872554869
50.4227872488872
50.4227872464294
50.4227872455361
50.4227872452188
50.4227872451128
50.4227872450861
50.4227872450909
50.4227872451088
50.4227872451325
50.4227872451589
50.4227872451868
50.4227872452156
50.4227872452453
50.4227872452757
50.4227872453067
50.4227872453384
50.4227872453706
50.4227872454033
50.4227872454363
50.4227872454694
50.4227872455027
50.4227872455359
50.422787245569
50.4227872456018
50.4227872456341
50.4227872456658
50.4227872456968
50.422787245727
50.4227872457561
50.422787245784
50.4227872458106
50.4227872458357
50.4227872458591
50.4227872458807
50.4227872459006
50.4227872459189
50.4227872459369
50.4227872459576
50.4227872459879
50.4227872460443
50.4227872461672
50.4227872464669
50.4227872472635
50.4227872495175
50.4227872560726
3501.58244963339
31514.2420807274
31514.2427368213
3501.58252541807
50.4227883611152
50.4227883592315
50.4227883585467
50.4227883583112
50.4227883582396
50.4227883582281
50.422788358239
50.4227883582588
50.4227883582827
50.4227883583085
50.4227883583355
50.4227883583634
50.4227883583922
50.4227883584217
50.422788358452
50.4227883584829
50.4227883585146
50.4227883585468
50.4227883585794
50.4227883586125
50.4227883586457
50.4227883586791
50.4227883587124
50.4227883587456
50.4227883587785
50.4227883588111
50.422788358843
50.4227883588743
50.4227883589047
50.4227883589341
50.4227883589623
50.4227883589893
50.4227883590147
50.4227883590385
50.4227883590605
50.4227883590805
50.4227883590984
50.4227883591144
50.4227883591291
50.4227883591443
50.4227883591642
50.4227883591999
50.422788359282
50.4227883594998
50.4227883601273
50.4227883619889
3501.58252551397
31514.242739687
31514.2434393817
3501.58260412131
50.4227894979686
50.4227894974513
50.4227894972738
50.422789497224
50.4227894972206
50.4227894972346
50.4227894972552
50.4227894972787
50.4227894973037
50.4227894973297
50.4227894973566
50.4227894973844
50.422789497413
50.4227894974424
50.4227894974726
50.4227894975035
50.4227894975351
50.4227894975673
50.4227894975999
50.422789497633
50.4227894976664
50.4227894976998
50.4227894977333
50.4227894977667
50.4227894977998
50.4227894978325
50.4227894978646
50.4227894978961
50.4227894979267
50.4227894979564
50.422789497985
50.4227894980123
50.4227894980381
50.4227894980624
50.4227894980848
50.4227894981052
50.4227894981234
50.4227894981394
50.422789498153
50.4227894981647
50.4227894981753
50.422789498188
50.4227894982109
50.4227894982687
50.4227894984385
50.4227894989522
3501.5826041998
31514.2434406891
31514.2441529978
3501.58268359638
50.4227906434178
50.422790643286
50.4227906432494
50.4227906432498
50.4227906432642
50.4227906432842
50.4227906433066
50.4227906433305
50.4227906433553
50.4227906433811
50.4227906434077
50.4227906434352
50.4227906434636
50.4227906434928
50.4227906435229
50.4227906435537
50.4227906435853
50.4227906436175
50.4227906436502
50.4227906436834
50.4227906437168
50.4227906437503
50.422790643784
50.4227906438175
50.4227906438507
50.4227906438836
50.422790643916
50.4227906439477
50.4227906439786
50.4227906440086
50.4227906440375
50.4227906440652
50.4227906440914
50.422790644116
50.4227906441389
50.4227906441599
50.4227906441787
50.4227906441951
50.4227906442092
50.4227906442206
50.4227906442297
50.4227906442372
50.4227906442454
50.4227906442611
50.4227906443061
50.4227906444433
3501.58268367068
31514.2441538433
31514.2448697058
3501.58276328227
50.4227917911753
50.4227917911489
50.4227917911497
50.4227917911626
50.4227917911806
50.4227917912013
50.4227917912235
50.4227917912467
50.4227917912711
50.4227917912964
50.4227917913226
50.4227917913498
50.4227917913779
50.422791791407
50.4227917914369
50.4227917914677
50.4227917914993
50.4227917915314
50.4227917915642
50.4227917915973
50.4227917916308
50.4227917916645
50.4227917916982
50.4227917917319
50.4227917917654
50.4227917917984
50.422791791831
50.422791791863
50.4227917918942
50.4227917919245
50.4227917919537
50.4227917919817
50.4227917920083
50.4227917920334
50.4227917920569
50.4227917920784
50.4227917920978
50.422791792115
50.4227917921298
50.4227917921421
50.4227917921517
50.4227917921589
50.4227917921644
50.4227917921702
50.422791792183
50.4227917922184
3501.58276335577
31514.2448704175
31514.2455872583
3501.58284302444
50.4227929395383
50.4227929395393
50.4227929395489
50.422792939564
50.4227929395819
50.4227929396018
50.4227929396231
50.4227929396456
50.4227929396692
50.422792939694
50.4227929397198
50.4227929397466
50.4227929397745
50.4227929398034
50.4227929398332
50.4227929398639
50.4227929398954
50.4227929399276
50.4227929399603
50.4227929399935
50.4227929400271
50.4227929400609
50.4227929400948
50.4227929401286
50.4227929401622
50.4227929401955
50.4227929402283
50.4227929402605
50.422792940292
50.4227929403226
50.4227929403522
50.4227929403806
50.4227929404076
50.4227929404332
50.4227929404571
50.4227929404793
50.4227929404994
50.4227929405174
50.4227929405331
50.4227929405463
50.422792940557
50.4227929405653
50.4227929405713
50.4227929405758
50.4227929405814
50.4227929405908
3501.58284309806
31514.2455879349
31514.2463050363
3501.5829227813
50.4227940880564
50.4227940880636
50.4227940880744
50.4227940880889
50.4227940881058
50.4227940881246
50.4227940881448
50.4227940881665
50.4227940881894
50.4227940882136
50.4227940882389
50.4227940882654
50.422794088293
50.4227940883217
50.4227940883514
50.422794088382
50.4227940884134
50.4227940884456
50.4227940884784
50.4227940885116
50.4227940885453
50.4227940885792
50.4227940886132
50.4227940886471
50.4227940886809
50.4227940887144
50.4227940887475
50.42279408878
50.4227940888117
50.4227940888426
50.4227940888725
50.4227940889013
50.4227940889288
50.4227940889549
50.4227940889794
50.4227940890021
50.422794089023
50.4227940890418
50.4227940890584
50.4227940890728
50.4227940890847
50.4227940890942
50.4227940891015
50.422794089107
50.4227940891119
50.4227940891157
3501.58292285525
31514.2463057069
31514.2470228732
3501.58300254189
50.4227952366134
50.422795236621
50.4227952366311
50.4227952366444
50.42279523666
50.4227952366775
50.4227952366968
50.4227952367176
50.4227952367398
50.4227952367633
50.4227952367882
50.4227952368144
50.4227952368417
50.4227952368701
50.4227952368997
50.4227952369302
50.4227952369616
50.4227952369937
50.4227952370265
50.4227952370598
50.4227952370935
50.4227952371275
50.4227952371616
50.4227952371958
50.4227952372297
50.4227952372634
50.4227952372967
50.4227952373295
50.4227952373615
50.4227952373927
50.422795237423
50.4227952374522
50.4227952374801
50.4227952375067
50.4227952375317
50.4227952375551
50.4227952375767
50.4227952375963
50.4227952376139
50.4227952376294
50.4227952376426
50.4227952376535
50.4227952376622
50.4227952376691
50.422795237675
50.4227952376785
3501.58300261622
31514.2470235422
31514.2477407251
3501.58308230342
50.4227963851797
50.4227963851864
50.4227963851953
50.4227963852072
50.4227963852215
50.4227963852379
50.4227963852561
50.4227963852761
50.4227963852975
50.4227963853205
50.4227963853449
50.4227963853707
50.4227963853977
50.4227963854259
50.4227963854553
50.4227963854857
50.422796385517
50.4227963855491
50.4227963855819
50.4227963856153
50.4227963856491
50.4227963856831
50.4227963857174
50.4227963857517
50.4227963857858
50.4227963858197
50.4227963858532
50.4227963858862
50.4227963859185
50.4227963859501
50.4227963859807
50.4227963860103
50.4227963860387
50.4227963860658
50.4227963860914
50.4227963861155
50.4227963861378
50.4227963861583
50.4227963861768
50.4227963861934
50.4227963862078
50.4227963862201
50.4227963862303
50.4227963862387
50.422796386246
50.4227963862504
3501.5830823781
31514.2477413979
31514.2484585808
3501.58316206518
50.4227975337483
50.4227975337538
50.4227975337614
50.4227975337719
50.422797533785
50.4227975338002
50.4227975338174
50.4227975338365
50.4227975338572
50.4227975338796
50.4227975339035
50.4227975339288
50.4227975339556
50.4227975339836
50.4227975340128
50.422797534043
50.4227975340742
50.4227975341063
50.4227975341391
50.4227975341725
50.4227975342064
50.4227975342406
50.4227975342749
50.4227975343094
50.4227975343437
50.4227975343778
50.4227975344115
50.4227975344448
50.4227975344774
50.4227975345093
50.4227975345403
50.4227975345703
50.4227975345991
50.4227975346267
50.4227975346529
50.4227975346776
50.4227975347007
50.422797534722
50.4227975347416
50.4227975347592
50.4227975347748
50.4227975347885
50.4227975348001
50.42279753481
50.4227975348187
50.4227975348245
3501.58316214028
31514.2484592568
31514.2491764375
3501.583241827
50.4227986823176
50.4227986823218
50.422798682328
50.4227986823372
50.422798682349
50.4227986823631
50.4227986823793
50.4227986823975
50.4227986824176
50.4227986824393
50.4227986824627
50.4227986824877
50.4227986825141
50.4227986825419
50.4227986825709
50.422798682601
50.4227986826322
50.4227986826642
50.422798682697
50.4227986827304
50.4227986827643
50.4227986827986
50.4227986828331
50.4227986828677
50.4227986829021
50.4227986829365
50.4227986829704
50.4227986830039
50.4227986830369
50.4227986830691
50.4227986831004
50.4227986831308
50.4227986831601
50.4227986831882
50.422798683215
50.4227986832404
50.4227986832642
50.4227986832864
50.4227986833068
50.4227986833255
50.4227986833424
50.4227986833573
50.4227986833704
50.4227986833819
50.4227986833919
50.4227986833991
3501.58324190247
31514.249177118
31514.2498942946
3501.58332158886
50.4227998308873
50.4227998308901
50.4227998308951
50.4227998309029
50.4227998309135
50.4227998309265
50.4227998309417
50.422799830959
50.4227998309783
50.4227998309995
50.4227998310224
50.422799831047
50.422799831073
50.4227998311005
50.4227998311294
50.4227998311594
50.4227998311905
50.4227998312224
50.4227998312552
50.4227998312887
50.4227998313226
50.422799831357
50.4227998313916
50.4227998314263
50.422799831461
50.4227998314955
50.4227998315297
50.4227998315634
50.4227998315966
50.4227998316292
50.4227998316609
50.4227998316917
50.4227998317215
50.4227998317502
50.4227998317775
50.4227998318035
50.4227998318281
50.4227998318511
50.4227998318726
50.4227998318923
50.4227998319103
50.4227998319266
50.422799831941
50.422799831954
50.4227998319654
50.4227998319741
3501.58332166474
31514.2498949784
31514.2506121521
3501.58340135075
50.4228009794574
50.4228009794588
50.4228009794625
50.4228009794691
50.4228009794785
50.4228009794903
50.4228009795046
50.4228009795211
50.4228009795397
50.4228009795602
50.4228009795826
50.4228009796068
50.4228009796325
50.4228009796598
50.4228009796884
50.4228009797183
50.4228009797492
50.4228009797812
50.4228009798139
50.4228009798475
50.4228009798815
50.4228009799159
50.4228009799506
50.4228009799855
50.4228009800203
50.422800980055
50.4228009800894
50.4228009801234
50.4228009801569
50.4228009801898
50.4228009802219
50.4228009802532
50.4228009802833
50.4228009803125
50.4228009803405
50.4228009803671
50.4228009803924
50.4228009804163
50.4228009804386
50.4228009804594
50.4228009804786
50.4228009804962
50.4228009805119
50.4228009805263
50.4228009805392
50.4228009805493
3501.58340142695
31514.2506128391
31514.25133001
3501.58348111269
50.4228021280281
50.4228021280281
50.4228021280305
50.4228021280357
50.422802128044
50.4228021280547
50.422802128068
50.4228021280837
50.4228021281016
50.4228021281215
50.4228021281434
50.4228021281671
50.4228021281926
50.4228021282196
50.422802128248
50.4228021282777
50.4228021283086
50.4228021283405
50.4228021283733
50.4228021284068
50.4228021284408
50.4228021284754
50.4228021285102
50.4228021285452
50.4228021285802
50.422802128615
50.4228021286497
50.422802128684
50.4228021287178
50.4228021287509
50.4228021287834
50.422802128815
50.4228021288457
50.4228021288754
50.4228021289039
50.4228021289312
50.4228021289572
50.4228021289819
50.4228021290052
50.422802129027
50.4228021290473
50.4228021290661
50.4228021290832
50.422802129099
50.4228021291133
50.4228021291249
3501.58348118919
31514.251330698
31514.2520478685
3501.58356087469
50.4228032765996
50.4228032765981
50.4228032765991
50.4228032766031
50.4228032766101
50.4228032766199
50.4228032766322
50.4228032766471
50.4228032766642
50.4228032766836
50.422803276705
50.4228032767283
50.4228032767534
50.4228032767802
50.4228032768084
50.422803276838
50.4228032768688
50.4228032769006
50.4228032769333
50.4228032769669
50.422803277001
50.4228032770355
50.4228032770705
50.4228032771056
50.4228032771407
50.4228032771758
50.4228032772107
50.4228032772452
50.4228032772792
50.4228032773127
50.4228032773456
50.4228032773776
50.4228032774087
50.4228032774389
50.422803277468
50.4228032774959
50.4228032775227
50.4228032775481
50.4228032775723
50.4228032775952
50.4228032776166
50.4228032776366
50.422803277655
50.4228032776722
50.422803277688
50.4228032777012
3501.58356095156
31514.2520485606
31514.2527657277
3501.58364063675
50.4228044251719
50.4228044251688
50.4228044251685
50.4228044251712
50.4228044251771
50.4228044251858
50.4228044251972
50.4228044252112
50.4228044252277
50.4228044252465
50.4228044252674
50.4228044252903
50.4228044253151
50.4228044253415
50.4228044253696
50.422804425399
50.4228044254297
50.4228044254615
50.4228044254942
50.4228044255277
50.4228044255619
50.4228044255965
50.4228044256316
50.4228044256668
50.4228044257021
50.4228044257373
50.4228044257724
50.4228044258072
50.4228044258415
50.4228044258753
50.4228044259085
50.4228044259409
50.4228044259724
50.4228044260031
50.4228044260327
50.4228044260613
50.4228044260887
50.422804426115
50.4228044261401
50.4228044261639
50.4228044261864
50.4228044262077
50.4228044262274
50.422804426246
50.4228044262631
50.422804426278
3501.58364071398
31514.2527664237
31514.2534835877
3501.5837203989
50.4228055737453
50.4228055737405
50.4228055737388
50.4228055737401
50.4228055737449
50.4228055737525
50.422805573763
50.4228055737763
50.4228055737921
50.4228055738103
50.4228055738307
50.4228055738533
50.4228055738777
50.4228055739039
50.4228055739318
50.422805573961
50.4228055739916
50.4228055740233
50.422805574056
50.4228055740895
50.4228055741237
50.4228055741585
50.4228055741936
50.4228055742289
50.4228055742644
50.4228055742998
50.4228055743351
50.4228055743701
50.4228055744047
50.4228055744387
50.4228055744722
50.4228055745051
50.422805574537
50.4228055745682