/*--------------------------------*- C++ -*----------------------------------*\
  =========                 |
  \\      /  F ield         | OpenFOAM: The Open Source CFD Toolbox
   \\    /   O peration     | Website:  https://openfoam.org
    \\  /    A nd           | Version:  10
     \\/     M anipulation  |
\*---------------------------------------------------------------------------*/
FoamFile
{
    format      ascii;
    class       volScalarField;
    location    "4.8";
    object      p;
}
// * * * * * * * * * * * * * * * * * * * * * * * * * * * * * * * * * * * * * //

dimensions      [1 -1 -2 0 0 0 0];

internalField   nonuniform List<scalar> 
2500
(
100086.152330155
100086.152331432
100086.15233242
100086.152333224
100086.152333689
100086.152333974
100086.152334128
100086.152334208
100086.152334246
100086.152334258
100086.152334255
100086.152334245
100086.15233423
100086.152334212
100086.152334193
100086.152334172
100086.152334151
100086.15233413
100086.152334108
100086.152334086
100086.152334064
100086.152334042
100086.15233402
100086.152333998
100086.152333976
100086.152333955
100086.152333934
100086.152333914
100086.152333894
100086.152333876
100086.152333858
100086.152333841
100086.152333825
100086.15233381
100086.152333796
100086.152333783
100086.15233377
100086.152333758
100086.152333745
100086.152333729
100086.152333707
100086.152333673
100086.152333615
100086.152333517
100086.152333346
100086.152333049
100086.152332571
100086.152331752
100086.152330742
100086.152329458
100086.1500832
100086.150084193
100086.150084955
100086.150085638
100086.150086041
100086.150086295
100086.150086433
100086.150086505
100086.150086538
100086.150086547
100086.150086544
100086.150086534
100086.150086519
100086.150086501
100086.150086482
100086.150086461
100086.15008644
100086.150086419
100086.150086397
100086.150086375
100086.150086353
100086.150086331
100086.150086309
100086.150086287
100086.150086266
100086.150086245
100086.150086224
100086.150086204
100086.150086184
100086.150086165
100086.150086147
100086.15008613
100086.150086114
100086.150086099
100086.150086085
100086.150086071
100086.150086059
100086.150086046
100086.150086033
100086.150086018
100086.150085996
100086.150085964
100086.150085911
100086.150085822
100086.150085667
100086.1500854
100086.150084984
100086.150084287
100086.150083504
100086.150082507
100086.14782586
100086.147826487
100086.147826853
100086.147827283
100086.147827538
100086.147827709
100086.147827804
100086.147827852
100086.147827874
100086.147827878
100086.147827872
100086.147827861
100086.147827845
100086.147827827
100086.147827808
100086.147827788
100086.147827767
100086.147827746
100086.147827724
100086.147827702
100086.14782768
100086.147827658
100086.147827636
100086.147827614
100086.147827593
100086.147827571
100086.147827551
100086.14782753
100086.147827511
100086.147827492
100086.147827474
100086.147827456
100086.14782744
100086.147827425
100086.147827411
100086.147827397
100086.147827385
100086.147827372
100086.14782736
100086.147827345
100086.147827326
100086.1478273
100086.147827258
100086.147827192
100086.147827081
100086.147826896
100086.147826627
100086.147826184
100086.147825801
100086.14782516
100086.145560425
100086.145560643
100086.14556066
100086.145560815
100086.145560905
100086.145560979
100086.145561021
100086.145561042
100086.14556105
100086.145561048
100086.145561039
100086.145561026
100086.14556101
100086.145560992
100086.145560972
100086.145560952
100086.145560931
100086.14556091
100086.145560888
100086.145560866
100086.145560844
100086.145560822
100086.1455608
100086.145560779
100086.145560757
100086.145560736
100086.145560715
100086.145560694
100086.145560674
100086.145560655
100086.145560637
100086.14556062
100086.145560603
100086.145560588
100086.145560574
100086.14556056
100086.145560548
100086.145560535
100086.145560523
100086.14556051
100086.145560495
100086.145560475
100086.145560447
100086.145560408
100086.145560349
100086.145560261
100086.145560158
100086.145559991
100086.145559962
100086.145559728
100086.143288983
100086.143288896
100086.143288716
100086.143288677
100086.143288648
100086.143288648
100086.143288649
100086.143288647
100086.143288643
100086.143288634
100086.143288621
100086.143288606
100086.143288589
100086.143288571
100086.143288551
100086.143288531
100086.14328851
100086.143288489
100086.143288467
100086.143288445
100086.143288423
100086.143288401
100086.143288379
100086.143288357
100086.143288335
100086.143288314
100086.143288293
100086.143288272
100086.143288252
100086.143288233
100086.143288214
100086.143288197
100086.14328818
100086.143288165
100086.14328815
100086.143288137
100086.143288124
100086.143288112
100086.143288101
100086.14328809
100086.143288078
100086.143288065
100086.143288049
100086.143288033
100086.143288016
100086.143288002
100086.143288019
100086.143288047
100086.143288222
100086.143288296
100086.141013543
100086.141013298
100086.141013039
100086.141012888
100086.14101279
100086.14101274
100086.141012712
100086.141012693
100086.141012678
100086.141012664
100086.141012648
100086.141012631
100086.141012613
100086.141012594
100086.141012574
100086.141012553
100086.141012532
100086.141012511
100086.141012489
100086.141012467
100086.141012445
100086.141012423
100086.1410124
100086.141012378
100086.141012356
100086.141012335
100086.141012314
100086.141012293
100086.141012273
100086.141012253
100086.141012235
100086.141012217
100086.1410122
100086.141012184
100086.14101217
100086.141012156
100086.141012144
100086.141012132
100086.141012122
100086.141012112
100086.141012104
100086.141012096
100086.141012091
100086.141012092
100086.141012104
100086.14101214
100086.141012227
100086.141012369
100086.141012627
100086.141012866
100086.138735763
100086.138735477
100086.138735213
100086.138735015
100086.138734884
100086.138734806
100086.138734759
100086.138734728
100086.138734705
100086.138734685
100086.138734667
100086.138734648
100086.138734629
100086.138734609
100086.138734588
100086.138734567
100086.138734546
100086.138734524
100086.138734502
100086.13873448
100086.138734458
100086.138734436
100086.138734413
100086.138734391
100086.138734369
100086.138734347
100086.138734326
100086.138734305
100086.138734284
100086.138734265
100086.138734246
100086.138734228
100086.138734211
100086.138734195
100086.13873418
100086.138734167
100086.138734154
100086.138734143
100086.138734134
100086.138734126
100086.13873412
100086.138734117
100086.13873412
100086.138734134
100086.138734164
100086.138734229
100086.138734349
100086.13873454
100086.138734804
100086.138735089
100086.136456758
100086.136456498
100086.136456264
100086.136456059
100086.13645592
100086.136455829
100086.136455771
100086.136455731
100086.136455702
100086.136455678
100086.136455657
100086.136455636
100086.136455615
100086.136455595
100086.136455574
100086.136455552
100086.136455531
100086.136455509
100086.136455487
100086.136455465
100086.136455442
100086.13645542
100086.136455397
100086.136455375
100086.136455352
100086.13645533
100086.136455309
100086.136455287
100086.136455267
100086.136455247
100086.136455227
100086.136455209
100086.136455192
100086.136455176
100086.136455161
100086.136455147
100086.136455135
100086.136455125
100086.136455116
100086.13645511
100086.136455106
100086.136455108
100086.136455116
100086.136455139
100086.13645518
100086.136455259
100086.136455388
100086.136455586
100086.13645582
100086.136456082
100086.134177179
100086.134176969
100086.134176776
100086.134176586
100086.134176451
100086.134176355
100086.134176292
100086.134176246
100086.134176213
100086.134176185
100086.134176161
100086.134176139
100086.134176117
100086.134176096
100086.134176074
100086.134176052
100086.134176031
100086.134176008
100086.134175986
100086.134175964
100086.134175941
100086.134175918
100086.134175895
100086.134175873
100086.13417585
100086.134175828
100086.134175806
100086.134175784
100086.134175763
100086.134175743
100086.134175723
100086.134175705
100086.134175687
100086.134175671
100086.134175656
100086.134175642
100086.13417563
100086.13417562
100086.134175612
100086.134175607
100086.134175606
100086.134175611
100086.134175624
100086.134175652
100086.134175699
100086.134175782
100086.134175906
100086.13417609
100086.134176283
100086.134176496
100086.131897363
100086.131897203
100086.131897048
100086.13189688
100086.131896757
100086.131896662
100086.131896597
100086.131896548
100086.131896511
100086.131896481
100086.131896454
100086.13189643
100086.131896408
100086.131896385
100086.131896363
100086.131896341
100086.131896319
100086.131896297
100086.131896274
100086.131896251
100086.131896228
100086.131896205
100086.131896182
100086.131896159
100086.131896136
100086.131896114
100086.131896091
100086.131896069
100086.131896048
100086.131896027
100086.131896007
100086.131895988
100086.13189597
100086.131895954
100086.131895939
100086.131895925
100086.131895913
100086.131895903
100086.131895896
100086.131895892
100086.131895893
100086.1318959
100086.131895916
100086.131895947
100086.131895997
100086.131896078
100086.131896191
100086.131896353
100086.131896506
100086.131896669
100086.129617462
100086.129617344
100086.129617221
100086.129617077
100086.129616967
100086.129616877
100086.129616812
100086.129616761
100086.129616722
100086.12961669
100086.129616662
100086.129616637
100086.129616613
100086.12961659
100086.129616567
100086.129616545
100086.129616522
100086.129616499
100086.129616476
100086.129616453
100086.12961643
100086.129616407
100086.129616383
100086.12961636
100086.129616337
100086.129616314
100086.129616291
100086.129616269
100086.129616247
100086.129616226
100086.129616206
100086.129616186
100086.129616168
100086.129616151
100086.129616135
100086.129616122
100086.12961611
100086.1296161
100086.129616093
100086.12961609
100086.129616092
100086.129616101
100086.129616119
100086.129616151
100086.129616201
100086.129616277
100086.129616378
100086.129616515
100086.129616635
100086.129616756
100086.127337542
100086.127337455
100086.127337357
100086.127337236
100086.127337138
100086.127337054
100086.127336991
100086.12733694
100086.1273369
100086.127336866
100086.127336837
100086.127336811
100086.127336786
100086.127336762
100086.127336739
100086.127336716
100086.127336693
100086.12733667
100086.127336647
100086.127336624
100086.1273366
100086.127336577
100086.127336553
100086.127336529
100086.127336506
100086.127336482
100086.127336459
100086.127336436
100086.127336414
100086.127336393
100086.127336372
100086.127336352
100086.127336333
100086.127336316
100086.1273363
100086.127336286
100086.127336274
100086.127336264
100086.127336258
100086.127336256
100086.127336258
100086.127336268
100086.127336287
100086.127336319
100086.127336366
100086.127336437
100086.127336524
100086.127336638
100086.127336733
100086.127336822
100086.125057624
100086.125057559
100086.125057481
100086.125057379
100086.125057293
100086.125057216
100086.125057156
100086.125057106
100086.125057065
100086.125057031
100086.125057001
100086.125056974
100086.125056949
100086.125056925
100086.125056901
100086.125056878
100086.125056854
100086.125056831
100086.125056808
100086.125056784
100086.12505676
100086.125056736
100086.125056712
100086.125056688
100086.125056664
100086.12505664
100086.125056616
100086.125056593
100086.125056571
100086.125056548
100086.125056527
100086.125056507
100086.125056488
100086.12505647
100086.125056454
100086.125056439
100086.125056427
100086.125056417
100086.125056411
100086.125056409
100086.125056412
100086.125056422
100086.125056441
100086.125056472
100086.125056516
100086.12505658
100086.125056655
100086.125056749
100086.125056824
100086.125056889
100086.122777715
100086.122777666
100086.122777603
100086.122777518
100086.122777443
100086.122777373
100086.122777316
100086.122777267
100086.122777227
100086.122777193
100086.122777162
100086.122777135
100086.122777109
100086.122777084
100086.12277706
100086.122777037
100086.122777013
100086.122776989
100086.122776966
100086.122776942
100086.122776917
100086.122776893
100086.122776869
100086.122776844
100086.12277682
100086.122776795
100086.122776771
100086.122776748
100086.122776724
100086.122776702
100086.12277668
100086.122776659
100086.122776639
100086.122776621
100086.122776604
100086.12277659
100086.122776577
100086.122776567
100086.122776561
100086.122776558
100086.122776561
100086.122776571
100086.122776589
100086.122776618
100086.122776659
100086.122776715
100086.12277678
100086.122776858
100086.122776917
100086.122776966
100086.120497816
100086.120497779
100086.120497727
100086.120497656
100086.12049759
100086.120497527
100086.120497474
100086.120497427
100086.120497388
100086.120497354
100086.120497323
100086.120497296
100086.12049727
100086.120497245
100086.12049722
100086.120497196
100086.120497172
100086.120497148
100086.120497124
100086.1204971
100086.120497075
100086.120497051
100086.120497026
100086.120497001
100086.120496976
100086.120496951
100086.120496926
100086.120496902
100086.120496878
100086.120496855
100086.120496833
100086.120496812
100086.120496791
100086.120496772
100086.120496755
100086.12049674
100086.120496727
100086.120496717
100086.12049671
100086.120496707
100086.12049671
100086.120496718
100086.120496735
100086.120496762
100086.120496798
100086.120496848
100086.120496903
100086.120496967
100086.120497014
100086.120497052
100086.118217926
100086.118217897
100086.118217855
100086.118217795
100086.118217737
100086.118217681
100086.118217631
100086.118217587
100086.118217549
100086.118217516
100086.118217485
100086.118217458
100086.118217431
100086.118217406
100086.118217382
100086.118217357
100086.118217333
100086.118217309
100086.118217284
100086.11821726
100086.118217235
100086.11821721
100086.118217184
100086.118217159
100086.118217133
100086.118217108
100086.118217083
100086.118217058
100086.118217034
100086.11821701
100086.118216987
100086.118216965
100086.118216944
100086.118216925
100086.118216907
100086.118216891
100086.118216878
100086.118216867
100086.118216859
100086.118216856
100086.118216858
100086.118216866
100086.118216881
100086.118216904
100086.118216937
100086.118216979
100086.118217026
100086.118217079
100086.118217117
100086.118217146
100086.115938044
100086.115938021
100086.115937986
100086.115937935
100086.115937885
100086.115937835
100086.115937789
100086.115937748
100086.115937711
100086.115937679
100086.115937649
100086.115937621
100086.115937595
100086.11593757
100086.115937545
100086.11593752
100086.115937496
100086.115937471
100086.115937446
100086.115937421
100086.115937396
100086.11593737
100086.115937345
100086.115937319
100086.115937293
100086.115937267
100086.115937241
100086.115937216
100086.115937191
100086.115937167
100086.115937143
100086.115937121
100086.115937099
100086.115937079
100086.11593706
100086.115937044
100086.115937029
100086.115937018
100086.11593701
100086.115937006
100086.115937006
100086.115937013
100086.115937026
100086.115937047
100086.115937075
100086.115937111
100086.11593715
100086.115937193
100086.115937224
100086.115937247
100086.113658169
100086.11365815
100086.113658121
100086.113658078
100086.113658035
100086.11365799
100086.113657948
100086.113657909
100086.113657874
100086.113657843
100086.113657813
100086.113657786
100086.11365776
100086.113657735
100086.11365771
100086.113657685
100086.11365766
100086.113657636
100086.11365761
100086.113657585
100086.113657559
100086.113657533
100086.113657507
100086.113657481
100086.113657454
100086.113657428
100086.113657402
100086.113657376
100086.11365735
100086.113657325
100086.113657301
100086.113657278
100086.113657255
100086.113657234
100086.113657215
100086.113657198
100086.113657183
100086.113657171
100086.113657161
100086.113657156
100086.113657156
100086.11365716
100086.113657171
100086.113657189
100086.113657213
100086.113657243
100086.113657276
100086.113657311
100086.113657336
100086.113657354
100086.111378299
100086.111378284
100086.11137826
100086.111378224
100086.111378186
100086.111378145
100086.111378107
100086.111378072
100086.111378039
100086.111378008
100086.11137798
100086.111377953
100086.111377927
100086.111377902
100086.111377877
100086.111377852
100086.111377827
100086.111377802
100086.111377776
100086.111377751
100086.111377725
100086.111377698
100086.111377672
100086.111377645
100086.111377618
100086.111377591
100086.111377564
100086.111377537
100086.111377511
100086.111377485
100086.11137746
100086.111377436
100086.111377413
100086.111377392
100086.111377372
100086.111377353
100086.111377338
100086.111377324
100086.111377314
100086.111377308
100086.111377306
100086.111377309
100086.111377317
100086.111377331
100086.111377351
100086.111377377
100086.111377403
100086.111377432
100086.111377452
100086.111377467
100086.109098434
100086.109098423
100086.109098402
100086.109098371
100086.109098338
100086.109098303
100086.109098268
100086.109098235
100086.109098204
100086.109098175
100086.109098147
100086.109098121
100086.109098095
100086.10909807
100086.109098045
100086.10909802
100086.109097995
100086.10909797
100086.109097944
100086.109097918
100086.109097892
100086.109097865
100086.109097838
100086.10909781
100086.109097783
100086.109097755
100086.109097728
100086.109097701
100086.109097674
100086.109097647
100086.109097622
100086.109097597
100086.109097573
100086.109097551
100086.10909753
100086.109097511
100086.109097494
100086.109097479
100086.109097468
100086.10909746
100086.109097457
100086.109097458
100086.109097463
100086.109097475
100086.10909749
100086.109097511
100086.109097533
100086.109097555
100086.109097572
100086.109097584
100086.106818574
100086.106818564
100086.106818548
100086.106818521
100086.106818493
100086.106818461
100086.10681843
100086.106818399
100086.10681837
100086.106818343
100086.106818316
100086.10681829
100086.106818265
100086.10681824
100086.106818216
100086.106818191
100086.106818165
100086.10681814
100086.106818114
100086.106818088
100086.106818061
100086.106818033
100086.106818006
100086.106817978
100086.10681795
100086.106817922
100086.106817894
100086.106817866
100086.106817838
100086.106817811
100086.106817784
100086.106817759
100086.106817734
100086.106817711
100086.106817689
100086.106817669
100086.106817651
100086.106817636
100086.106817623
100086.106817614
100086.106817609
100086.106817607
100086.106817611
100086.106817619
100086.106817631
100086.106817647
100086.106817664
100086.106817682
100086.106817695
100086.106817704
100086.104538717
100086.104538709
100086.104538696
100086.104538674
100086.104538649
100086.104538621
100086.104538593
100086.104538565
100086.104538538
100086.104538512
100086.104538486
100086.104538461
100086.104538436
100086.104538412
100086.104538387
100086.104538362
100086.104538337
100086.104538311
100086.104538285
100086.104538258
100086.104538231
100086.104538203
100086.104538175
100086.104538147
100086.104538118
100086.104538089
100086.104538061
100086.104538032
100086.104538004
100086.104537976
100086.104537949
100086.104537922
100086.104537897
100086.104537872
100086.10453785
100086.104537829
100086.10453781
100086.104537793
100086.104537779
100086.104537768
100086.104537761
100086.104537758
100086.104537758
100086.104537763
100086.104537772
100086.104537784
100086.104537797
100086.10453781
100086.10453782
100086.104537828
100086.102258863
100086.102258857
100086.102258846
100086.102258828
100086.102258806
100086.102258782
100086.102258757
100086.102258731
100086.102258706
100086.102258681
100086.102258657
100086.102258633
100086.102258609
100086.102258585
100086.10225856
100086.102258535
100086.10225851
100086.102258484
100086.102258457
100086.10225843
100086.102258403
100086.102258375
100086.102258346
100086.102258317
100086.102258288
100086.102258259
100086.102258229
100086.1022582
100086.102258171
100086.102258142
100086.102258114
100086.102258087
100086.10225806
100086.102258035
100086.102258011
100086.102257989
100086.102257969
100086.102257951
100086.102257936
100086.102257924
100086.102257914
100086.102257909
100086.102257907
100086.102257909
100086.102257914
100086.102257922
100086.102257931
100086.102257941
100086.102257948
100086.102257954
100086.099979011
100086.099979007
100086.099978999
100086.099978984
100086.099978965
100086.099978944
100086.099978922
100086.099978899
100086.099978875
100086.099978852
100086.099978829
100086.099978806
100086.099978782
100086.099978758
100086.099978734
100086.099978709
100086.099978684
100086.099978658
100086.099978631
100086.099978604
100086.099978576
100086.099978547
100086.099978518
100086.099978489
100086.099978459
100086.099978429
100086.099978399
100086.099978369
100086.099978339
100086.099978309
100086.099978281
100086.099978252
100086.099978225
100086.099978199
100086.099978174
100086.099978151
100086.09997813
100086.09997811
100086.099978094
100086.099978079
100086.099978068
100086.099978061
100086.099978056
100086.099978055
100086.099978057
100086.099978062
100086.099978067
100086.099978074
100086.099978079
100086.099978083
100086.097699162
100086.097699159
100086.097699153
100086.097699141
100086.097699125
100086.097699107
100086.097699087
100086.097699067
100086.097699045
100086.097699024
100086.097699001
100086.097698979
100086.097698956
100086.097698933
100086.097698909
100086.097698884
100086.097698859
100086.097698832
100086.097698805
100086.097698778
100086.097698749
100086.09769872
100086.097698691
100086.097698661
100086.097698631
100086.0976986
100086.097698569
100086.097698538
100086.097698508
100086.097698478
100086.097698448
100086.097698419
100086.097698391
100086.097698363
100086.097698338
100086.097698313
100086.097698291
100086.09769827
100086.097698252
100086.097698236
100086.097698223
100086.097698213
100086.097698206
100086.097698202
100086.097698201
100086.097698202
100086.097698204
100086.097698208
100086.097698211
100086.097698213
100086.095419314
100086.095419313
100086.095419308
100086.095419299
100086.095419286
100086.095419271
100086.095419254
100086.095419235
100086.095419215
100086.095419195
100086.095419174
100086.095419153
100086.095419131
100086.095419108
100086.095419084
100086.095419059
100086.095419034
100086.095419008
100086.09541898
100086.095418952
100086.095418924
100086.095418894
100086.095418864
100086.095418834
100086.095418803
100086.095418772
100086.09541874
100086.095418709
100086.095418678
100086.095418646
100086.095418616
100086.095418586
100086.095418557
100086.095418529
100086.095418502
100086.095418476
100086.095418452
100086.09541843
100086.09541841
100086.095418393
100086.095418378
100086.095418366
100086.095418356
100086.09541835
100086.095418345
100086.095418343
100086.095418343
100086.095418343
100086.095418344
100086.095418345
100086.093139467
100086.093139467
100086.093139465
100086.093139458
100086.093139448
100086.093139435
100086.09313942
100086.093139404
100086.093139386
100086.093139367
100086.093139347
100086.093139327
100086.093139305
100086.093139283
100086.093139259
100086.093139235
100086.093139209
100086.093139183
100086.093139156
100086.093139128
100086.093139099
100086.093139069
100086.093139038
100086.093139007
100086.093138976
100086.093138944
100086.093138912
100086.09313888
100086.093138848
100086.093138816
100086.093138784
100086.093138753
100086.093138723
100086.093138694
100086.093138666
100086.093138639
100086.093138614
100086.09313859
100086.093138569
100086.09313855
100086.093138533
100086.093138518
100086.093138507
100086.093138497
100086.09313849
100086.093138485
100086.093138482
100086.09313848
100086.093138478
100086.093138478
100086.09085962
100086.090859622
100086.090859622
100086.090859617
100086.090859609
100086.090859599
100086.090859587
100086.090859572
100086.090859556
100086.090859539
100086.09085952
100086.090859501
100086.09085948
100086.090859458
100086.090859435
100086.09085941
100086.090859385
100086.090859359
100086.090859331
100086.090859303
100086.090859273
100086.090859243
100086.090859212
100086.090859181
100086.090859149
100086.090859116
100086.090859083
100086.090859051
100086.090859018
100086.090858985
100086.090858953
100086.090858921
100086.09085889
100086.09085886
100086.09085883
100086.090858802
100086.090858776
100086.090858751
100086.090858728
100086.090858707
100086.090858688
100086.090858671
100086.090858657
100086.090858645
100086.090858635
100086.090858628
100086.090858621
100086.090858617
100086.090858613
100086.090858611
100086.088579774
100086.088579777
100086.088579779
100086.088579777
100086.088579771
100086.088579763
100086.088579753
100086.08857974
100086.088579726
100086.08857971
100086.088579693
100086.088579674
100086.088579654
100086.088579633
100086.08857961
100086.088579586
100086.088579561
100086.088579534
100086.088579506
100086.088579478
100086.088579448
100086.088579418
100086.088579386
100086.088579354
100086.088579321
100086.088579288
100086.088579255
100086.088579221
100086.088579188
100086.088579154
100086.088579121
100086.088579088
100086.088579056
100086.088579025
100086.088578995
100086.088578965
100086.088578938
100086.088578911
100086.088578887
100086.088578864
100086.088578843
100086.088578824
100086.088578808
100086.088578793
100086.088578781
100086.08857877
100086.088578761
100086.088578754
100086.088578749
100086.088578745
100086.086299928
100086.086299932
100086.086299936
100086.086299936
100086.086299933
100086.086299927
100086.086299919
100086.086299908
100086.086299896
100086.086299881
100086.086299865
100086.086299847
100086.086299828
100086.086299807
100086.086299785
100086.086299761
100086.086299736
100086.086299709
100086.086299681
100086.086299652
100086.086299622
100086.086299591
100086.08629956
100086.086299527
100086.086299494
100086.08629946
100086.086299426
100086.086299392
100086.086299358
100086.086299323
100086.086299289
100086.086299256
100086.086299223
100086.08629919
100086.086299159
100086.086299128
100086.086299099
100086.086299071
100086.086299045
100086.086299021
100086.086298998
100086.086298977
100086.086298958
100086.086298941
100086.086298926
100086.086298913
100086.086298902
100086.086298892
100086.086298884
100086.086298879
100086.084020081
100086.084020087
100086.084020092
100086.084020095
100086.084020094
100086.08402009
100086.084020084
100086.084020076
100086.084020065
100086.084020052
100086.084020037
100086.08402002
100086.084020001
100086.084019981
100086.084019959
100086.084019935
100086.08401991
100086.084019883
100086.084019856
100086.084019826
100086.084019796
100086.084019765
100086.084019733
100086.0840197
100086.084019666
100086.084019632
100086.084019597
100086.084019562
100086.084019527
100086.084019492
100086.084019457
100086.084019422
100086.084019388
100086.084019355
100086.084019322
100086.084019291
100086.08401926
100086.084019231
100086.084019203
100086.084019177
100086.084019152
100086.084019129
100086.084019108
100086.084019089
100086.084019071
100086.084019055
100086.084019042
100086.084019029
100086.08401902
100086.084019013
100086.081740233
100086.081740241
100086.081740248
100086.081740253
100086.081740254
100086.081740253
100086.081740249
100086.081740242
100086.081740233
100086.081740221
100086.081740207
100086.081740191
100086.081740173
100086.081740153
100086.081740132
100086.081740108
100086.081740083
100086.081740057
100086.081740029
100086.081739999
100086.081739969
100086.081739937
100086.081739905
100086.081739871
100086.081739837
100086.081739802
100086.081739767
100086.081739731
100086.081739695
100086.081739659
100086.081739624
100086.081739588
100086.081739553
100086.081739519
100086.081739485
100086.081739452
100086.08173942
100086.08173939
100086.08173936
100086.081739333
100086.081739306
100086.081739281
100086.081739258
100086.081739236
100086.081739216
100086.081739197
100086.081739181
100086.081739166
100086.081739155
100086.081739147
100086.079460384
100086.079460393
100086.079460402
100086.07946041
100086.079460413
100086.079460414
100086.079460412
100086.079460407
100086.079460399
100086.079460389
100086.079460376
100086.079460361
100086.079460344
100086.079460325
100086.079460303
100086.07946028
100086.079460255
100086.079460229
100086.079460201
100086.079460171
100086.079460141
100086.079460109
100086.079460076
100086.079460042
100086.079460007
100086.079459971
100086.079459936
100086.079459899
100086.079459863
100086.079459826
100086.07945979
100086.079459753
100086.079459717
100086.079459682
100086.079459647
100086.079459613
100086.07945958
100086.079459548
100086.079459517
100086.079459487
100086.079459459
100086.079459432
100086.079459407
100086.079459383
100086.07945936
100086.079459339
100086.079459321
100086.079459303
100086.079459289
100086.07945928
100086.077180533
100086.077180545
100086.077180556
100086.077180566
100086.077180571
100086.077180574
100086.077180574
100086.077180571
100086.077180565
100086.077180556
100086.077180544
100086.07718053
100086.077180513
100086.077180495
100086.077180474
100086.077180451
100086.077180426
100086.0771804
100086.077180372
100086.077180342
100086.077180311
100086.077180279
100086.077180245
100086.077180211
100086.077180176
100086.07718014
100086.077180103
100086.077180066
100086.077180029
100086.077179992
100086.077179954
100086.077179917
100086.07717988
100086.077179844
100086.077179808
100086.077179773
100086.077179738
100086.077179705
100086.077179673
100086.077179641
100086.077179611
100086.077179582
100086.077179555
100086.077179528
100086.077179504
100086.07717948
100086.077179459
100086.077179439
100086.077179423
100086.077179412
100086.074900681
100086.074900694
100086.074900708
100086.07490072
100086.074900728
100086.074900733
100086.074900735
100086.074900733
100086.074900728
100086.074900721
100086.07490071
100086.074900697
100086.074900681
100086.074900663
100086.074900643
100086.07490062
100086.074900595
100086.074900569
100086.074900541
100086.074900511
100086.07490048
100086.074900447
100086.074900413
100086.074900379
100086.074900343
100086.074900306
100086.074900269
100086.074900232
100086.074900194
100086.074900156
100086.074900118
100086.07490008
100086.074900042
100086.074900004
100086.074899968
100086.074899931