/*--------------------------------*- C++ -*----------------------------------*\
  =========                 |
  \\      /  F ield         | OpenFOAM: The Open Source CFD Toolbox
   \\    /   O peration     | Website:  https://openfoam.org
    \\  /    A nd           | Version:  10
     \\/     M anipulation  |
\*---------------------------------------------------------------------------*/
FoamFile
{
    format      ascii;
    class       volScalarField;
    location    "4.8";
    object      p_rgh;
}
// * * * * * * * * * * * * * * * * * * * * * * * * * * * * * * * * * * * * * //

dimensions      [1 -1 -2 0 0 0 0];

internalField   nonuniform List<scalar> 
2500
(
86.2656447681074
86.2656509894296
86.265658456221
86.2656631217833
86.2656655579049
86.2656667959527
86.2656673947349
86.2656676734186
86.2656677951454
86.2656678408675
86.2656678520143
86.2656678467174
86.2656678335625
86.2656678166968
86.265667797823
86.2656677778286
86.2656677569321
86.2656677356426
86.2656677141058
86.265667692307
86.2656676704064
86.2656676484912
86.2656676266488
86.2656676049228
86.2656675834442
86.2656675623148
86.2656675415783
86.2656675213802
86.2656675018225
86.2656674829777
86.2656674649625
86.2656674478349
86.2656674316677
86.2656674165191
86.2656674023747
86.2656673890888
86.2656673762831
86.2656673632009
86.2656673478341
86.26566732637
86.265667289932
86.2656672196317
86.265667074651
86.2656667748379
86.2656661589863
86.2656649141427
86.2656624772208
86.2656577866728
86.2656502239843
86.2656441216241
86.2661109161709
86.2661318607279
86.2661514233769
86.2661634354445
86.266169929062
86.2661733032728
86.2661749805411
86.2661757761234
86.2661761313357
86.2661762763746
86.266176327088
86.2661763367505
86.2661763289798
86.2661763139331
86.2661762956559
86.2661762757925
86.2661762549978
86.2661762337229
86.2661762121425
86.2661761903437
86.2661761684431
86.2661761465279
86.2661761246854
86.2661761029594
86.2661760814517
86.2661760602787
86.2661760395276
86.2661760193005
86.266175999699
86.2661759808252
86.2661759627517
86.266175945595
86.2661759293551
86.2661759140901
86.2661758998001
86.2661758862232
86.2661758726026
86.2661758572503
86.2661758357281
86.2661757976166
86.2661757184542
86.2661755441222
86.2661751595879
86.2661743384815
86.2661726478109
86.2661692832917
86.2661628081114
86.2661507319863
86.2661308807437
86.2661102832644
86.2665627273673
86.2665936539124
86.2666191284952
86.2666343717719
86.2666425466305
86.2666467679373
86.2666488603572
86.2666498514445
86.2666502942302
86.2666504763038
86.2666505416419
86.2666505567613
86.2666505509114
86.2666505364905
86.2666505183879
86.2666504985536
86.2666504777881
86.2666504565132
86.2666504349036
86.2666504130902
86.2666503911751
86.2666503692453
86.2666503473883
86.2666503256187
86.2666503040673
86.2666502828506
86.2666502620268
86.2666502417269
86.2666502220673
86.2666502031207
86.2666501849744
86.266650167745
86.2666501513886
86.2666501360072
86.2666501215863
86.2666501078784
86.2666500939667
86.2666500778432
86.2666500542546
86.2666500104096
86.2666499161714
86.2666497043392
86.2666492317512
86.2666482152126
86.2666461107146
86.2666418998706
86.2666337323753
86.2666183615947
86.26659240156
86.2665614610451
86.2669331091311
86.2669650047901
86.2669882077607
86.2670015353506
86.2670084150013
86.2670118446113
86.2670134957298
86.2670142596617
86.2670145942393
86.2670147281606
86.2670147733152
86.2670147803728
86.2670147714525
86.2670147558529
86.2670147372992
86.2670147173048
86.2670146964665
86.2670146751479
86.2670146535238
86.2670146316523
86.267014609708
86.2670145877346
86.2670145657903
86.267014543977
86.2670145223528
86.2670145010343
86.2670144801232
86.2670144597214
86.2670144399308
86.2670144208387
86.2670144025615
86.2670143852156
86.2670143687428
86.2670143532596
86.2670143388095
86.2670143251307
86.2670143116411
86.2670142968127
86.2670142767893
86.2670142420538
86.2670141699782
86.2670140093978
86.2670136487286
86.2670128617174
86.2670111955522
86.2670077622606
86.2670008604473
86.2669873592968
86.2669635859056
86.2669311463396
86.2671969370276
86.2672231357137
86.2672403479082
86.2672498218599
86.2672545217647
86.2672567800619
86.2672578342317
86.2672583090462
86.2672585114487
86.2672585881373
86.2672586096451
86.2672586073022
86.2672585947294
86.2672585777182
86.267258558597
86.2672585383261
86.2672585173714
86.2672584959801
86.2672584742977
86.2672584523825
86.2672584303509
86.2672584082757
86.2672583862441
86.2672583643289
86.2672583425883
86.2672583211533
86.2672583000967
86.2672582795349
86.2672582595842
86.267258240332
86.2672582218802
86.2672582043451
86.2672581877414
86.2672581721563
86.2672581576335
86.267258144042
86.2672581310035
86.2672581176157
86.2672581015358
86.2672580769722
86.2672580300859
86.2672579293285
86.2672577042395
86.2672572092561
86.2672561394866
86.2672538697079
86.2672491353151
86.2672394913097
86.2672217379732
86.2671946790651
86.2673636316031
86.2673818146432
86.2673927459109
86.2673984993162
86.2674012381176
86.2674025017914
86.2674030706257
86.2674033167859
86.2674034162046
86.2674034483643
86.2674034512747
86.2674034413212
86.2674034256488
86.2674034073134
86.2674033875956
86.2674033670337
86.2674033459043
86.2674033244111
86.2674033026124
86.2674032806099
86.267403258491
86.2674032362847
86.2674032141367
86.2674031920615
86.2674031701754
86.2674031485658
86.2674031273345
86.2674031065835
86.2674030864437
86.2674030669587
86.2674030483031
86.2674030305498
86.2674030137568
86.2674029980262
86.2674029834161
86.2674029698683
86.2674029572372
86.2674029450136
86.2674029320624
86.2674029153568
86.2674028877373
86.2674028327892
86.2674027125759
86.2674024481676
86.2674018643156
86.2674005876324
86.2673978176899
86.2673919321242
86.26738057076
86.2673615102249
86.2674586097855
86.2674696400209
86.2674757526256
86.2674788076256
86.2674801927933
86.2674807967269
86.267481052826
86.2674811535981
86.2674811874313
86.2674811907928
86.2674811812467
86.2674811658799
86.2674811477773
86.2674811283214
86.2674811079924
86.2674810870958
86.2674810657481
86.2674810440803
86.2674810221361
86.2674810000026
86.2674809777382
86.267480955401
86.2674809330783
86.2674809108285
86.2674808887532
86.2674808669399
86.2674808454904
86.2674808245065
86.2674808041047
86.2674807843723
86.2674807654694
86.2674807474687
86.2674807304429
86.2674807145377
86.2674806997966
86.2674806862778
86.2674806739378
86.267480662631
86.2674806519208
86.2674806405266
86.2674806254654
86.2674805996794
86.2674805456481
86.2674804273556
86.2674801566609
86.2674795404309
86.2674781326641
86.2674749908911
86.2674685835227
86.2674568505317
86.2675080552435
86.2675140279607
86.2675170830335
86.2675185044354
86.2675191022863
86.2675193337491
86.2675194165204
86.2675194367184
86.267519433517
86.2675194199692
86.2675194025651
86.2675193834875
86.2675193635077
86.2675193430332
86.2675193221075
86.2675193008181
86.2675192792231
86.2675192573515
86.2675192352035
86.2675192128954
86.2675191904564
86.26751916793
86.2675191453891
86.2675191229355
86.2675191006274
86.2675190785667
86.2675190568552
86.2675190355949
86.2675190149166
86.2675189948932
86.2675189756847
86.2675189574074
86.2675189401343
86.2675189239962
86.2675189091242
86.2675188955764
86.2675188834692
86.2675188728317
86.2675188636786
86.2675188557769
86.2675188483554
86.2675188393914
86.2675188223948
86.2675187846908
86.2675186872511
86.2675184440741
86.2675178305944
86.2675163585518
86.2675131249125
86.2675066768134
86.267531820471
86.2675347423356
86.2675361088186
86.2675366676995
86.267536864354
86.267536910309
86.2675369074277
86.2675368871278
86.2675368644559
86.2675368413329
86.2675368190248
86.2675367972988
86.2675367758347
86.2675367544289
86.2675367329211
86.2675367112242
86.2675366893236
86.2675366671901
86.2675366448384
86.267536622312
86.2675365996402
86.2675365768955
86.2675365541218
86.2675365314062
86.2675365088362
86.2675364864845
86.267536464482
86.2675364429015
86.2675364218885
86.2675364015449
86.2675363820017
86.2675363633898
86.2675363458256
86.2675363294402
86.267536314379
86.2675363007875
86.2675362888258
86.2675362786977
86.267536270665
86.267536265048
86.2675362622103
86.2675362625305
86.267536264786
86.2675362673181
86.2675362551963
86.2675361975416
86.2675359890563
86.2675354022358
86.2675339378766
86.2675307336904
86.2675424497429
86.2675437442813
86.2675442778273
86.2675444322522
86.2675444476627
86.2675444115157
86.2675443705084
86.267544331422
86.2675442988548
86.2675442703185
86.2675442448672
86.2675442211912
86.2675441984902
86.2675441762694
86.2675441541796
86.2675441320607
86.2675441098254
86.2675440874009
86.2675440647872
86.2675440420135
86.2675440190942
86.2675439960876
86.2675439730374
86.2675439500308
86.2675439271407
86.2675439044542
86.2675438821025
86.2675438601873
86.2675438388105
86.2675438181031
86.2675437981961
86.2675437792204
86.2675437613216
86.2675437446451
86.2675437293656
86.2675437156722
86.2675437037833
86.2675436940044
86.2675436867721
86.267543682683
86.2675436826394
86.2675436880381
86.2675436998397
86.2675437208818
86.2675437465223
86.2675437706203
86.2675437448343
86.2675435745186
86.2675429911033
86.2675415457488
86.2675468960224
86.2675474079879
86.2675475705182
86.267547557436
86.2675475017459
86.267547434516
86.2675473786949
86.2675473316776
86.2675472942792
86.2675472626579
86.267547235082
86.2675472099654
86.2675471862167
86.2675471632538
86.267547140611
86.2675471180701
86.2675470954855
86.2675470727554
86.2675470498652
86.267547026815
86.2675470036047
86.2675469802925
86.2675469569367
86.2675469335954
86.2675469103706
86.2675468873349
86.2675468646048
86.2675468422967
86.2675468205125
86.2675467993977
86.2675467790832
86.2675467597001
86.2675467414228
86.2675467244117
86.2675467088702
86.2675466950022
86.2675466830988
86.2675466735382
86.2675466668443
86.2675466637447
86.2675466653891
86.2675466735236
86.2675466898654
86.2675467185036
86.2675467586378
86.2675468134257
86.2675468590751
86.2675468617672
86.2675466745859
86.2675460888859
86.2675486370135
86.2675488068344
86.2675488212117
86.2675487502274
86.2675486730295
86.2675485977234
86.2675485378131
86.267548488162
86.2675484485517
86.2675484151987
86.2675483861967
86.2675483599887
86.2675483354251
86.2675483117928
86.2675482886552
86.2675482657069
86.2675482427585
86.2675482197083
86.2675481965125
86.2675481731567
86.2675481496408
86.2675481260085
86.2675481023034
86.2675480786129
86.2675480550097
86.2675480315811
86.2675480084436
86.2675479856989
86.2675479634781
86.2675479419122
86.2675479211321
86.2675479013269
86.2675478826277
86.2675478652236
86.2675478493475
86.2675478352467
86.2675478232268
86.2675478137244
86.2675478073215
86.2675478048332
86.2675478074525
86.2675478169112
86.2675478351011
86.2675478660822
86.2675479099998
86.2675479725585
86.2675480395555
86.2675481023325
86.2675480753242
86.2675478720485
86.2675492703129
86.26754930483
86.2675492685812
86.2675491853006
86.2675491068367
86.2675490330003
86.2675489737157
86.267548924021
86.2675488836976
86.2675488494569
86.2675488195964
86.2675487925881
86.267548767355
86.2675487432134
86.2675487196102
86.2675486962689
86.2675486729713
86.2675486496009
86.267548626085
86.2675486023945
86.2675485785585
86.2675485545769
86.2675485305081
86.2675485064246
86.267548482414
86.2675484585634
86.2675484349747
86.2675484117644
86.2675483890634
86.2675483670173
86.2675483457569
86.267548325457
86.2675483062922
86.2675482884515
86.2675482721825
86.2675482577615
86.2675482455234
86.2675482359336
86.267548229589
86.2675482273335
86.2675482303457
86.2675482402265
86.2675482587947
86.2675482894847
86.2675483325002
86.2675483933272
86.267548461401
86.2675485371583
86.2675485660002
86.2675485171931
86.2675494785217
86.2675494662835
86.2675494182186
86.2675493394345
86.2675492668786
86.2675491980772
86.2675491414702
86.267549093056
86.2675490529364
86.2675490184483
86.2675489881221
86.2675489606045
86.2675489348912
86.2675489102839
86.2675488863024
86.2675488626119
86.2675488389941
86.2675488153036
86.267548791453
86.2675487674423
86.2675487432425
86.2675487188826
86.2675486944354
86.2675486699445
86.2675486454827
86.2675486211665
86.2675485971122
86.2675485734071
86.2675485501968
86.2675485276122
86.2675485058426
86.2675484850042
86.2675484653155
86.2675484469946
86.2675484302599
86.2675484154315
86.2675484028587
86.2675483930216
86.2675483865314
86.2675483841886
86.267548387128
86.2675483968051
86.2675484147621
86.2675484438078
86.2675484839128
86.2675485394138
86.2675486014195
86.2675486727967
86.2675487156084
86.2675487220113
86.2675495350122
86.2675495105505
86.2675494643481
86.2675493949355
86.2675493301795
86.2675492675044
86.2675492144044
86.2675491680129
86.2675491286936
86.2675490944239
86.2675490639667
86.2675490361871
86.2675490101537
86.2675489852409
86.2675489609392
86.2675489369431
86.2675489130052
86.2675488889945
86.2675488648238
86.2675488404639
86.2675488159002
86.267548791162
86.2675487662927
86.2675487413653
86.2675487164524
86.267548691656
86.2675486670778
86.2675486428489
86.2675486191001
86.2675485959626
86.2675485736108
86.267548552205
86.2675485319633
86.2675485130749
86.2675484958163
86.2675484804931
86.2675484674692
86.2675484572246
86.2675484503707
86.267548447664
86.2675484501669
86.2675484591018
86.267548475822
86.2675485024811
86.2675485387881
86.2675485879299
86.2675486419321
86.2675487038941
86.2675487457018
86.2675487678353
86.2675495429867
86.2675495183357
86.2675494778814
86.2675494182768
86.2675493612769
86.2675493048009
86.2675492555281
86.2675492115523
86.2675491734408
86.2675491397677
86.2675491094851
86.2675490816619
86.2675490554684
86.2675490303372
86.2675490057882
86.2675489815156
86.2675489573012
86.2675489329849
86.2675489084941
86.2675488837849
86.2675488588429
86.2675488337118
86.267548808406
86.2675487830129
86.2675487576198
86.267548732314
86.267548707212
86.2675486824155
86.2675486580847
86.2675486343651
86.2675486113876
86.2675485893706
86.2675485685177
86.2675485490181
86.2675485311629
86.2675485152577
86.2675485016662
86.2675484908686
86.2675484834617
86.2675484801439
86.2675484818465
86.2675484896754
86.267548504693
86.2675485285581
86.2675485607324
86.2675486034132
86.2675486494991
86.2675487015222
86.2675487379311
86.2675487616943
86.2675495390286
86.2675495176081
86.2675494832802
86.2675494325522
86.2675493826537
86.2675493320712
86.2675492866692
86.2675492453127
86.2675492087437
86.2675491759001
86.2675491460395
86.2675491183618
86.2675490921538
86.2675490669062
86.2675490421825
86.2675490176916
86.2675489932299
86.2675489686226
86.2675489438116
86.2675489187532
86.2675488934328
86.2675488678651
86.2675488421228
86.267548816264
86.2675487903616
86.2675487645174
86.2675487388478
86.2675487134838
86.2675486885564
86.2675486641965
86.2675486406079
86.267548617936
86.2675485964137
86.2675485762447
86.2675485577201
86.2675485411455
86.2675485268846
86.2675485154032
86.2675485072541
86.2675485030923
86.2675485037471
86.2675485101354
86.2675485231157
86.2675485439249
86.2675485718937
86.2675486084045
86.267548647229
86.267548690259
86.267548720687
86.2675487418164
86.2675495352305
86.2675495174917
86.2675494886935
86.2675494456344
86.2675494020223
86.2675493568968
86.2675493152929
86.2675492766575
86.2675492418057
86.2675492100389
86.2675491807895
86.2675491534173
86.2675491273258
86.2675491020636
86.2675490772381
86.2675490525726
86.267549027878
86.2675490030088
86.2675489778776
86.26754895247
86.2675489267567
86.2675489007815
86.2675488745735
86.26754884822
86.2675488217938
86.2675487954111
86.2675487691595
86.2675487431843
86.2675487176166
86.2675486926018
86.2675486683438
86.2675486449734
86.2675486227381
86.2675486018707
86.2675485826039
86.2675485652726
86.2675485502259
86.2675485379295
86.2675485288783
86.2675485236687
86.2675485230575
86.2675485277578
86.2675485385116
86.267548556134
86.2675485799555
86.2675486107182
86.267548643038
86.2675486782973
86.2675487033121
86.2675487209926
86.2675495349977
86.2675495206058
86.2675494965079
86.2675494599534
86.2675494219002
86.267549381766
86.2675493438146
86.267549307915
86.2675492749113
86.2675492443814
86.2675492158887
86.2675491889822
86.2675491631235
86.2675491379196
86.2675491130649
86.2675490882684
86.2675490633701
86.2675490382535
86.2675490128313
86.2675489870744
86.2675489609683
86.2675489345565
86.2675489078974
86.2675488810346
86.2675488540699
86.2675488271052
86.2675488002569
86.267548773656
86.2675487474335
86.2675487217493
86.2675486967637
86.2675486726803
86.2675486496883
86.267548628035
86.2675486079825
86.2675485898217
86.2675485739164
86.2675485606887
86.2675485505897
86.2675485441869
86.2675485421059
86.2675485449581
86.2675485533109
86.2675485677028
86.2675485874788
86.2675486129156
86.2675486394874
86.2675486680964
86.2675486884691
86.2675487029337
86.2675495389558
86.2675495274016
86.2675495072908
86.2675494762952
86.267549443146
86.267549407552
86.2675493730785
86.2675493399001
86.2675493088173
86.2675492796261
86.2675492520357
86.2675492256822
86.2675492001435
86.2675491750997
86.2675491502596
86.2675491253904
86.267549100332
86.2675490749825
86.2675490492693
86.2675490231777
86.2675489966787
86.2675489698449
86.2675489427056
86.2675489153335
86.2675488878158
86.267548860269
86.2675488328096
86.2675488055393
86.2675487786473
86.2675487522501
86.2675487265224
86.2675487016677
86.2675486778899
86.2675486554072
86.2675486344961
86.267548615433
86.2675485985819
86.2675485843065
86.2675485730579
86.2675485653162
86.2675485616201
86.2675485624786
86.2675485683285
86.2675485795044
86.2675485953951
86.2675486159569
86.2675486374064
86.2675486603548
86.2675486767548
86.2675486884546
86.2675495468284
86.2675495376461
86.2675495209842
86.2675494947471
86.2675494659343
86.267549434473
86.2675494033028
86.2675493727729
86.26754934364
86.2675493158749
86.267549289274
86.2675492635753
86.2675492384587
86.2675492136332
86.2675491888658
86.2675491639529
86.2675491387781
86.267549113225
86.2675490872352
86.2675490607944
86.2675490339316
86.2675490066467
86.2675489790272
86.2675489511312
86.2675489230605
86.2675488949171
86.2675488668174
86.2675488388923
86.2675488112873
86.2675487841625
86.267548757678
86.267548732023
86.2675487074157
86.2675486840744
86.2675486622611
86.2675486422377
86.2675486243534
86.2675486089429
86.2675485964282
86.2675485872314
86.2675485818181
86.2675485805812
86.2675485838845
86.2675485919026
86.2675486040534
86.2675486201188
86.2675486369844
86.2675486550288
86.2675486679946
86.2675486773369
86.2675495581352
86.2675495510048
86.2675495373114
86.2675495152362
86.2675494902942
86.2675494625873
86.2675494345312
86.267549406577
86.2675493794231
86.2675493531278
86.2675493275892
86.2675493026181
86.2675492779817
86.2675492534181
86.2675492287817
86.2675492038834
86.2675491785922
86.2675491528498
86.2675491265982
86.2675490998517
86.267549072596
86.2675490448892
86.2675490167749
86.267548988355
86.2675489597168
86.2675489309622
86.2675489022222
86.2675488736131
86.2675488452951
86.2675488174136
86.2675487901433
86.2675487636589
86.267548738193
86.2675487139495
86.2675486911612
86.2675486701337
86.2675486511434
86.2675486345252
86.2675486206572
86.2675486099033
86.2675486026856
86.2675485993095
86.2675486000371
86.2675486049411
86.2675486135267
86.2675486254593
86.2675486381922
86.2675486519292
86.2675486619264
86.267548669246
86.2675495723233
86.2675495669973
86.2675495559379
86.2675495375006
86.2675495160365
86.267549491793
86.2675494666764
86.2675494411815
86.2675494159921
86.2675493911956
86.2675493667775
86.2675493425922
86.2675493184943
86.2675492942944
86.2675492698181
86.2675492449634
86.2675492195995
86.2675491936971
86.267549167198
86.2675491401315
86.2675491124974
86.267549084354
86.267549055774
86.2675490268157
86.2675489975954
86.2675489682297
86.2675489388203
86.2675489095272
86.2675488804671
86.2675488518144
86.2675488237292
86.2675487964152
86.2675487700471
86.2675487448578
86.2675487210799
86.2675486989756
86.2675486788212
86.2675486609369
86.2675486456428
86.2675486332737
86.2675486241787
86.2675486186054
86.2675486167573
86.2675486186345
86.2675486238295
86.2675486319349
86.2675486409134
86.2675486508379
86.2675486581575
86.2675486636726
86.2675495888543
86.2675495851581
86.2675495764852
86.267549561293
86.2675495430012
86.2675495219301
86.2675494996074
86.267549476499
86.2675494532305
86.2675494299328
86.2675494066643
86.2675493833376
86.2675493598217
86.2675493360002
86.2675493117422
86.2675492869457
86.2675492615526
86.2675492354902
86.2675492087728
86.2675491814007
86.2675491534028
86.2675491248374
86.2675490957627
86.2675490662805
86.2675490364927
86.2675490065012
86.267548976437
86.2675489464309
86.2675489166286
86.2675488871901
86.26754885829
86.2675488301029
86.2675488028181
86.2675487766537
86.2675487518427
86.2675487286178
86.2675487072556
86.2675486880325
86.2675486712542
86.2675486572261
86.2675486462103
86.2675486384251
86.2675486340158
86.2675486329681
86.2675486349035
86.2675486394437
86.2675486449734
86.2675486514781
86.2675486563676
86.2675486602384
86.2675496072625
86.2675496050651
86.2675495985895
86.2675495863659
86.26754957097
86.2675495528529
86.2675495331496
86.2675495123403
86.2675494909636
86.2675494691794
86.2675494470896
86.2675494246359
86.2675494017458
86.2675493783463
86.2675493543211
86.267549329641
86.2675493042188
86.26754927804
86.2675492511044
86.2675492234412
86.2675491950795
86.2675491660921
86.2675491365517
86.2675491065456
86.2675490761758
86.2675490455586
86.2675490148249
86.2675489841058
86.2675489535613
86.2675489233225
86.2675488935784
86.2675488645036
86.2675488362729
86.2675488091045
86.2675487832312
86.2675487588567
86.267548736243
86.2675487156521
86.2675486973603
86.2675486816006
86.2675486686348
86.2675486586377
86.267548651711
86.2675486477965
86.2675486466469
86.2675486478402
86.2675486501685
86.26754865353
86.2675486561784
86.2675486585067
86.2675496270822
86.2675496262964
86.2675496218872
86.2675496123848
86.2675495996809
86.2675495843287
86.2675495671137
86.2675495485164
86.2675495289877
86.2675495087169
86.2675494878058
86.2675494662544
86.2675494440336
86.2675494210707
86.2675493973366
86.2675493727729
86.2675493473653
86.2675493210845
86.2675492939452
86.2675492660055
86.2675492372946
86.2675492078997
86.2675491778791
86.2675491473492
86.2675491163973
86.2675490851543
86.2675490537513
86.2675490223191
86.2675489910034
86.2675489599642
86.2675489293761
86.2675488993846
86.267548870208
86.2675488420209
86.2675488150417
86.2675487894885
86.2675487656088
86.2675487436063
86.2675487237575
86.2675487062661
86.2675486913358
86.2675486791122
86.2675486696971
86.2675486630178
86.2675486588996
86.2675486569206
86.2675486562803
86.2675486567168
86.2675486572407
86.2675486581284
86.2675496478478
86.2675496484153
86.2675496459706
86.2675496390148
86.267549628843
86.2675496160955
86.2675496012525
86.2675495847943
86.2675495670701
86.2675495482836
86.2675495285657
86.2675495079311
86.2675494863943
86.2675494639261
86.267549440483
86.2675494160794
86.2675493906863
86.2675493643183
86.2675493370189
86.2675493088027
86.2675492797571
86.2675492499548
86.2675492194685
86.2675491884147
86.2675491568953
86.2675491250411
86.2675490929687
86.2675490608235
86.2675490287511
86.2675489968969
86.2675489654503
86.2675489345565
86.2675489043904
86.2675488751702
86.267548847085
86.2675488203386
86.2675487951492
86.2675487717206
86.2675487502856
86.2675487310335
86.2675487141532
86.2675486997323
86.2675486878725
86.267548678501
86.2675486715161
86.2675486665539
86.267548663076
86.2675486607768
86.2675486592634
86.2675486587395
86.2675496691081
86.2675496710435
86.2675496704906
86.267549665994
86.2675496582233
86.2675496479496
86.2675496353768
86.2675496209704
86.2675496050215
86.2675495877193
86.2675495691801
86.2675495494768
86.2675495286385
86.2675495066651
86.2675494835566
86.2675494593277
86.2675494339783
86.267549407552
86.267549380078
86.267549351629
86.2675493222487
86.2675492920534
86.2675492611015
86.2675492295384
86.2675491974514
86.2675491649716
86.2675491322443
86.2675490993715
86.2675490665424
86.2675490338879
86.2675490015681
86.2675489697576
86.2675489386311
86.2675489083631
86.2675488791574
86.2675488511886
86.267548824675
86.2675487998204
86.2675487767847
86.2675487557717
86.2675487369124
86.2675487203232
86.2675487060624
86.2675486940716
86.2675486843364
86.2675486765074
86.2675486703374
86.2675486654043
86.2675486619119
86.267548659991
86.2675496904994
86.2675496937882
86.2675496950978
86.2675496929733
86.2675496875017
86.2675496796146
86.2675496692391
86.2675496568263
86.2675496425945
86.2675496267329
86.2675496093871
86.2675495906296
86.2675495705043
86.2675495490403
86.2675495262811
86.2675495022413
86.2675494769501
86.2675494504801
86.2675494228606
86.2675493941642
86.2675493644783
86.2675493339048
86.2675493025163
86.2675492704439
86.2675492377894
86.2675492046983
86.2675491713017
86.2675491377304
86.2675491041446
86.2675490706752
86.2675490374968
86.2675490047695
86.267548972668
86.2675489413523
86.2675489110115
86.267548881835
86.2675488539971
86.2675488276727
86.2675488030509
86.2675487802771
86.2675487594679
86.2675487407396
86.2675487241213
86.2675487095985
86.2675486972003
86.2675486865919
86.2675486778171
86.2675486703374
86.267548664895
86.2675486615626
86.2675497116143
86.2675497162854
86.2675497194723
86.2675497196906
86.2675497164455
86.2675497108576
86.2675497025921
86.2675496921293
86.2675496795855
86.26754966515
86.2675496489828
86.2675496311567
86.2675496117445
86.2675495908334
86.2675495684234
86.2675495445874
86.267549519398
86.2675494928844
86.2675494651339
86.2675494362193
86.2675494062278
86.2675493752758
86.2675493434508
86.2675493108836
86.2675492776907
86.267549244003
86.2675492099515
86.2675491756818
86.2675491413393
86.2675491070695
86.2675490730326
86.2675490393885
86.2675490062975
86.2675489739486
86.2675489424728
86.2675489120738
86.2675488829118
86.2675488551467
86.2675488289242
86.2675488044042
86.2675487816741
86.2675487608358
86.2675487419183
86.2675487248925
86.2675487099186
86.2675486966182
86.2675486853404
86.2675486753142
86.2675486679364
86.2675486631779
86.2675497320597
86.2675497381861
86.2675497432501
86.2675497458113
86.2675497447635
86.2675497414166
86.2675497352175
86.2675497266318
86.267549715747
86.2675497027085
86.2675496877055
86.2675496708107
86.2675496521406
86.2675496317534
86.2675496097218
86.2675495861185
86.2675495610165
86.2675495344884
86.2675495066214
86.2675494775031
86.2675494472351
86.2675494159193
86.2675493836869
86.2675493506395
86.2675493168936
86.2675492826238
86.267549247932
86.2675492129783
86.2675491778937
86.2675491428236
86.2675491079426
86.2675490733964
86.2675490393303
86.2675490059337
86.2675489733374
86.2675489417161
86.2675489112298
86.2675488820241
86.26754885423
86.2675488279783
86.2675488033565
86.2675487804372
86.2675487592642
86.2675487398228
86.2675487223314
86.2675487064262
86.2675486926601
86.2675486801163
86.2675486707449
86.2675486645021
86.2675497514865
86.2675497591408
86.2675497661694
86.2675497711025
86.267549772223
86.2675497710879
86.267549766897
86.2675497601449
86.2675497508608
86.2675497392047
86.2675497253513
86.2675497093878
86.2675496914453
86.2675496716111
86.2675496499578
86.267549626602
86.2675496016018
86.2675495750736
86.2675495471049
86.2675495177973
86.2675494872528
86.2675494556024
86.2675494229479
86.2675493894349
86.2675493551942
86.2675493203424
86.2675492850103
86.2675492493872
86.2675492135604
86.267549177719
86.2675491420086
86.2675491065602
86.2675490715337
86.2675490371039
86.2675490034017
86.2675489705725
86.2675489387912
86.2675489081594
86.2675488788082
86.2675488508539
86.2675488243549
86.2675487993984
86.267548776028
86.2675487542292
86.2675487342931
86.2675487158122
86.2675486996159
86.267548684511
86.2675486731023
86.2675486652879
86.2675497695309
86.2675497788296
86.2675497878809
86.2675497952587
86.267549798562
86.2675497995951
86.2675497973541
86.2675497924211
86.267549784694
86.2675497743912
86.2675497616729
86.2675497466262
86.2675497294113
86.2675497101154
86.2675496888696
86.2675496657612
86.267549640892
86.2675496143784
86.2675495863223
86.2675495568255
86.2675495260337
86.2675494940631
86.2675494610157
86.2675494270661
86.2675493923016
86.2675493568968
86.2675493209681
86.2675492846756
86.2675492481358
86.2675492115377
86.2675491749978
86.2675491386763
86.2675491027039
86.2675490672555
86.2675490324618
86.267548998454
86.2675489653629
86.2675489333342
86.267548902455
86.2675488728273
86.2675488445093
86.2675488175591
86.2675487920496
86.2675487679371
86.2675487456145
86.2675487246015
86.2675487059751
86.2675486882654
86.2675486747466
86.2675486652442
86.2675497858872
86.2675497970049
86.2675498082099
86.2675498181052
86.2675498235913
86.2675498267781
86.267549826458
86.2675498232711
86.2675498170865
86.2675498080935
86.2675497964956
86.2675497823511
86.2675497658638
86.2675497471209
86.267549726268
86.2675497034215
86.2675496786978
86.2675496521988
86.2675496240699
86.2675495944277
86.267549563403
86.2675495311123
86.2675494977011
86.2675494633149
86.2675494280702
86.2675493921124
86.2675493556017
86.2675493186543
86.2675492814451
86.2675492440903
86.2675492067501
86.26754916957
86.2675491326809
86.2675490962283
86.2675490603579
86.2675490251859
86.2675489908434
86.2675489574322
86.2675489250541
86.2675488937966
86.2675488636887
86.2675488348032
86.2675488072127
86.2675487808592
86.2675487561937
86.2675487326924
86.2675487116358
86.2675486912485
86.2675486754888
86.2675486641529
86.2675498002354
86.2675498133613
86.2675498268509
86.2675498393801
86.267549847078
86.2675498523895
86.2675498539465
86.2675498524768
86.2675498477765
86.2675498400786
86.2675498295575
86.2675498163298
86.2675498005556
86.2675497823657
86.2675497619202
86.2675497393211
86.2675497147429
86.2675496882875
86.267549660115
86.2675496303273
86.2675495990698
86.267549566488
86.2675495327276
86.2675494979194
86.267549462209
86.2675494257419
86.2675493886636
86.2675493511051
86.2675493132265
86.2675492751441
86.2675492370327
86.2675491990085
86.2675491612172
86.2675491238042