/*--------------------------------*- C++ -*----------------------------------*\
  =========                 |
  \\      /  F ield         | OpenFOAM: The Open Source CFD Toolbox
   \\    /   O peration     | Website:  https://openfoam.org
    \\  /    A nd           | Version:  10
     \\/     M anipulation  |
\*---------------------------------------------------------------------------*/
FoamFile
{
    format      ascii;
    class       surfaceScalarField;
    location    "4.8";
    object      phi;
}
// * * * * * * * * * * * * * * * * * * * * * * * * * * * * * * * * * * * * * //

dimensions      [1 0 -1 0 0 0 0];

internalField   nonuniform List<scalar> 
4900
(
-6.30139852606029e-12
6.46878538618017e-12
-7.83897070604741e-12
1.7940711579329e-12
-6.38645910559976e-12
-1.17424491264859e-12
-4.3716406080007e-12
-1.73811731942645e-12
-2.7990575860221e-12
-1.29986001958576e-12
-1.76391118794344e-12
-7.6529492883643e-13
-1.11737912633928e-12
-3.79032588895378e-13
-7.16665792210225e-13
-1.35487391098747e-13
-4.61742231976454e-13
8.11871619809453e-15
-2.93208220996434e-13
9.25368900030285e-14
-1.76228854132978e-13
1.42405833196514e-13
-9.10446848057862e-14
1.72790668614877e-13
-2.63840530390956e-14
1.92126617333345e-13
2.43427598672146e-14
2.05022834588403e-13
6.50792326062221e-14
2.14063771943422e-13
9.83059187592628e-14
2.20661453561755e-13
1.25654442329814e-13
2.25636578665723e-13
1.48270337523202e-13
2.29456539823449e-13
1.67009273223792e-13
2.32409899043321e-13
1.82507201327241e-13
2.34714328561493e-13
1.95305778090734e-13
2.36474722094306e-13
2.05837511997041e-13
2.37802761775443e-13
2.14502213403578e-13
2.38744941386483e-13
2.21635131111119e-13
2.39367198749006e-13
2.27567101476268e-13
2.39687909859406e-13
2.3261409082233e-13
2.39721321478916e-13
2.37098336740056e-13
2.39473822356434e-13
2.41343492203194e-13
2.38941532122774e-13
2.457050200524e-13
2.38104820744302e-13
2.50564891499678e-13
2.36933743884143e-13
2.56378606963321e-13
2.35366170542377e-13
2.63680560803305e-13
2.33320317483098e-13
2.7312292247007e-13
2.30691262908424e-13
2.85565948984649e-13
2.27271414659324e-13
3.02202517535887e-13
2.22746987441992e-13
3.24724197360645e-13
2.16628748974426e-13
3.55671942468641e-13
2.08096799444812e-13
3.99060084281057e-13
1.95698384199385e-13
4.61535641799589e-13
1.76833364195701e-13
5.54468357157028e-13
1.46791722328397e-13
6.97644779975303e-13
9.71602226118743e-14
9.25900926991789e-13
1.28696190229931e-14
1.29864823142854e-12
-1.30634743853715e-13
1.91682693188812e-12
-3.74700473555854e-13
2.92622387533147e-12
-7.6359272022312e-13
4.4859012566395e-12
-1.3094732605646e-12
6.51752409573127e-12
-1.77386052715012e-12
8.0016262867423e-12
-1.21561233019571e-12
6.41515994553346e-12
1.85592110443775e-12
6.60104430745126e-12
-8.1536485045681e-12
1.48557373719985e-11
-1.25770928328231e-11
6.54854344137601e-12
-1.10282255718743e-11
-2.37311003582381e-12
-8.06265648451733e-12
-4.35778280949559e-12
-5.4980003600597e-12
-3.5251910817696e-12
-3.71212562801314e-12
-2.21683884350142e-12
-2.53837944926712e-12
-1.22227964014701e-12
-1.77180927989689e-12
-5.74802083751517e-13
-1.25735911193451e-12
-1.8190198538534e-13
-8.97630429750886e-13
5.48196431590202e-14
-6.34515412000023e-13
1.9928231154315e-13
-4.33961007527086e-13
2.90545998955476e-13
-2.75838421281448e-13
3.50888048900488e-13
-1.47921942728679e-13
3.9272891483023e-13
-4.25010027302633e-14
4.23097120045421e-13
4.55178023208535e-14
4.45964602861954e-13
1.19667354985231e-13
4.63682858284216e-13
1.82531312947324e-13
4.77647932366166e-13
2.36078765038025e-13
4.8876444301674e-13
2.81875935502942e-13
4.97650407368072e-13
3.21228252946343e-13
5.04685886258093e-13
3.55244126598408e-13
5.10182802546239e-13
3.84916156873626e-13
5.14319148880205e-13
4.11134615067704e-13
5.17267345745697e-13
4.34753662908183e-13
5.19096072404215e-13
4.56602249098037e-13
5.1984633047157e-13
4.77513339964515e-13
5.19534061339027e-13
4.98339735477469e-13
5.18134818479743e-13
5.1999490074166e-13
5.15581137081835e-13
5.43469501469198e-13
5.1176324649284e-13
5.6990227918855e-13
5.06483733139792e-13
6.00616851641309e-13
4.99473885051097e-13
6.37202408561323e-13
4.90377981686236e-13
6.81665342940635e-13
4.78574896093235e-13
7.36677451348991e-13
4.63106843772241e-13
8.05876197976071e-13
4.42534855583232e-13
8.94475987556188e-13
4.14497175283042e-13
1.01030835621919e-12
3.74952061595471e-13
1.16573226970798e-12
3.16810795078882e-13
1.38104069986375e-12
2.2744573501222e-13
1.69043357659863e-12
8.45450303866297e-14
2.15215215300572e-12
-1.51003415737859e-13
2.86399723508159e-12
-5.43230062846077e-13
3.98281936130784e-12
-1.19217398725046e-12
5.7198460444097e-12
-2.19553914351345e-12
8.26041356395114e-12
-3.53800344098196e-12
1.12585955492415e-11
-4.44870915073177e-12
1.28702971853219e-11
-2.49154748099405e-12
8.37433378583288e-12
6.67646595508392e-12
1.51833960918506e-11
-5.18453455392352e-12
2.02868214835212e-11
-1.04663502464099e-11
1.21631628149069e-11
-1.00988090734584e-11
-2.39958180317609e-12
-8.02836647847143e-12
-6.09535766180217e-12
-5.93306821785887e-12
-5.29699702275927e-12
-4.33012919743789e-12
-3.50331222804396e-12
-3.18823017744486e-12
-2.05270317309879e-12
-2.38371638602932e-12
-1.07156417653893e-12
-1.80524206048287e-12
-4.55538760246722e-13
-1.37558199396503e-12
-7.23369402486387e-14
-1.04560913922285e-12
1.69921775244227e-13
-7.84531767632527e-13
3.2851814731205e-13
-5.72863618372173e-13
4.36934329700545e-13
-3.97973036606549e-13
5.14358096910544e-13
-2.51367876141957e-13
5.71891300559608e-13
-1.27128908076091e-13
6.16029775601451e-13
-2.09443443837947e-14
6.50708553068015e-13
7.04365150745923e-14
6.78367950896626e-13
1.49558399795302e-13
7.00619915308367e-13
2.18500306709481e-13
7.18548655868652e-13
2.79005176478513e-13
7.32882671299825e-13
3.32589125969313e-13
7.44165069129121e-13
3.80603333556408e-13
7.52754475158442e-13
4.24288007211008e-13
7.58936437226952e-13
4.64828537813574e-13
7.62850009938559e-13
5.03376479962364e-13
7.64570303960538e-13
5.41088599220645e-13
7.64122525622764e-13
5.79152345586299e-13
7.61449304003566e-13
6.18829634839139e-13
7.56421572200768e-13
6.61491743876905e-13
7.48817813828372e-13
7.08687345931614e-13
7.38275688222963e-13
7.62195849637509e-13
7.24294215703923e-13
8.24138104626701e-13
7.06189807254381e-13
8.97123919943779e-13
6.82855934360102e-13
9.84504496870248e-13
6.5261535278856e-13
1.09069002615509e-12
6.12984588205938e-13
1.22173101209288e-12
5.59996793659189e-13
1.38622583709101e-12
4.87089495472278e-13
1.59693532862146e-12
3.83051955578314e-13
1.87347389555329e-12
2.28425738061851e-13
2.24680162114347e-12
-1.04195633897665e-14
2.76626058146471e-12
-3.9094029850579e-13
3.50974369637832e-12
-1.00555995569688e-12
4.5906021513801e-12
-1.98930013496909e-12
6.1392582758654e-12
-3.45582704821357e-12
8.20603705505493e-12
-5.30792303154963e-12
1.03077723990023e-11
-6.24012288044171e-12
1.07549278376526e-11
-2.61568730075019e-12
5.42717840217705e-12
1.23123422512746e-11
2.08017115498926e-11
-2.48382600779935e-12
2.30158900301322e-11
-6.37155829573277e-12
1.63696345696851e-11
-7.08347666047992e-12
-1.36971792833583e-12
-6.34963871646105e-12
-6.5229113338085e-12
-5.21575213285913e-12
-6.13601174171103e-12
-4.15856402342752e-12
-4.27398689085102e-12
-3.29274868671274e-12
-2.63766688612415e-12
-2.61157470972648e-12
-1.47578984948243e-12
-2.07804475117202e-12
-7.14948517684088e-13
-1.6555477640978e-12
-2.2286547608594e-13
-1.31587854833154e-12
1.00516430520308e-13
-1.03845243822082e-12
3.19948227039314e-13
-8.08516165124653e-13
4.74638044635081e-13
-6.15497733111897e-13
5.87873997375868e-13
-4.51704876744359e-13
6.73581513446233e-13
-3.11442153155779e-13
7.40214147553741e-13
-1.90371490677707e-13
7.93043958834146e-13
-8.51187262940517e-14
8.35463140553333e-13
7.02875614239842e-15
8.69748540104947e-13
8.83163814129925e-14
8.97451598462304e-13
1.60649201157542e-13
9.19653574378044e-13
2.25701978508556e-13
9.37132597842847e-13
2.84971281113675e-13
9.50439413344048e-13
3.39848714768217e-13
9.599680976116e-13
3.9166026934075e-13
9.65936896975402e-13
4.41690160913612e-13
9.68463743795478e-13
4.91232739920883e-13
9.67576102133277e-13
5.41616082697043e-13
9.63182317048562e-13
5.94248496760424e-13
9.55085013376637e-13
6.50654419685641e-13
9.42943876501151e-13
7.12543317443622e-13
9.26223215033938e-13
7.81861207905068e-13
9.0418436102386e-13
8.60908158760432e-13
8.75802550780584e-13
9.52459394842483e-13
8.39498948738657e-13
1.05997526124194e-12
7.92931343640938e-13
1.18787037602412e-12
7.32675707895669e-13
1.34194619881077e-12
6.53409892278424e-13
1.52995706789944e-12
5.46645229676012e-13
1.7625378886271e-12
3.98329277148291e-13
2.0544739385129e-12
1.84881697512258e-13
2.42640688058365e-12
-1.33143215809602e-13
2.90663996718824e-12
-6.20799001383507e-13
3.53225472663995e-12
-1.37909258774017e-12
4.34167606836354e-12
-2.54388166069432e-12
5.34711127203934e-12
-4.20147664211409e-12
6.44979711817499e-12
-6.14181304508524e-12
7.20252169081565e-12
-6.70977139113134e-12
6.56531224754467e-12
-1.68259686884483e-12
2.66302130654287e-12
1.64947005767321e-11
2.36346983467299e-11
-8.97766540494967e-13
2.41422428972858e-11
-2.99345706081367e-12
1.87511430609749e-11
-4.28620974203781e-12
1.99457741448512e-13
-4.55269635804733e-12
-5.99334676268353e-12
-4.23693284423399e-12
-6.20058243351753e-12
-3.69368366136841e-12
-4.57464067485014e-12
-3.12257489685547e-12
-2.97183056744562e-12
-2.60100228293955e-12
-1.76411136214252e-12
-2.15128488531037e-12
-9.33950579211649e-13
-1.77176952248882e-12
-3.73532029041243e-13
-1.4535281959199e-12
9.65585737404557e-15
-1.18622054459611e-12
2.78792365085468e-13
-9.6042885064021e-13
4.73912893736943e-13
-7.6833780500869e-13
6.19839833242203e-13
-6.03674784816832e-13
7.31999428313531e-13
-4.61474177501762e-13
8.20120921628116e-13
-3.37777049093364e-13
8.90470654074053e-13
-2.29401869967137e-13
9.47208956666921e-13
-1.33726102820456e-13
9.93176181651486e-13
-4.85488756261029e-14
1.03034688125411e-12
2.80218071090845e-14
1.06012364473543e-12
9.7659129991896e-14
1.08350702099524e-12
1.61870779547576e-13
1.10122685810357e-12
2.22063319466962e-13
1.11378157877283e-12
2.79575879684674e-13
1.12146968629426e-12
3.35707663046946e-13
1.12445054736874e-12
3.9176838943335e-13
1.1227526532836e-12
4.4909726238786e-13
1.11625462491418e-12
5.0911702655495e-13
1.10468587179885e-12
5.73356076239313e-13
1.08759939025126e-12
6.43522397403575e-13
1.06428944898188e-12
7.21538939740981e-13
1.03380159198893e-12
8.09661741851696e-13
9.94790539465327e-13
9.1056104181998e-13
9.45265053948391e-13
1.02748362657858e-12
8.8232405876795e-13
1.16443515119609e-12
8.0179633530326e-13
1.32644234003801e-12
6.97366402102628e-13
1.51979621907119e-12
5.59303673628866e-13
1.75230293059105e-12
3.72076409155433e-13
2.03331062734589e-12
1.1059020474101e-13
2.37305241511063e-12
-2.65438610686669e-13
2.78027941326609e-12
-8.19508369753667e-13
3.25658462882709e-12
-1.64527683097962e-12
3.77998837906503e-12
-2.8545623229955e-12
4.27673981927875e-12
-4.4808635706107e-12
4.55977029574051e-12
-6.19898454966816e-12
4.29911281440905e-12
-6.20962023316783e-12
3.063170305943e-12
-1.9550304128035e-13
9.78174213786515e-13
1.88157333703043e-11
2.47510127588592e-11
-1.1268651745155e-13
2.44560008266968e-11
-1.02235611422729e-12
1.99016881847661e-11
-2.46843302311935e-12
1.87194893648863e-12
-3.2329104268596e-12
-5.01607492067585e-12
-3.40161456418334e-12
-5.83041149178264e-12
-3.20425720206051e-12
-4.57861984260847e-12
-2.85746254889054e-12
-3.13045256778773e-12
-2.47440299448085e-12
-1.96227366078628e-12
-2.10923748312017e-12
-1.11637862894007e-12
-1.78179832697613e-12
-5.19790727510218e-13
-1.49633761276043e-12
-9.58561820627796e-14
-1.25027559434765e-12
2.11622994179083e-13
-1.03869401415182e-12
4.40261977190608e-13
-8.56380426284925e-13
6.14537846141079e-13
-6.98583293819042e-13
7.50308571593197e-13
-5.61236883970243e-13
8.57966942384137e-13
-4.40930786042915e-13
9.44427897961477e-13
-3.34824293619237e-13
1.01441529214582e-12
-2.4050914162789e-13
1.07120792326023e-12
-1.55936220093925e-13
1.11714183922133e-12
-7.93123099155756e-14
1.15388647176982e-12
-9.04450522973705e-15
1.1826472229692e-12
5.63195114710837e-14
1.20430768779974e-12
1.18137523343926e-13
1.21946349079917e-12
1.77700082553645e-13
1.22849305399621e-12
2.36265195028304e-13
1.23158878765887e-12
2.95099591620435e-13
1.22878239190043e-12
3.55495701905098e-13
1.21992573684339e-12
4.18821488430216e-13
1.20468359998719e-12
4.86545605810528e-13
1.1825059345109e-12
5.60292412363325e-13
1.15254165970056e-12
6.41873660484009e-13
1.11364764613792e-12
7.33389187988778e-13
1.06420110259731e-12
8.37280160404928e-13
1.00187152403866e-12
9.56427604573908e-13
9.23333126778677e-13
1.09427046008067e-12
8.23865729971024e-13
1.25489682775796e-12
6.96528080623039e-13
1.44304159176628e-12
5.30959336714352e-13
1.66384961436778e-12
3.11248547447794e-13
1.92209513797677e-12
1.26963971288828e-14
2.22011130796491e-12
-4.0249445509174e-13
2.55321220024819e-12
-9.90731979809811e-13
2.90101016850098e-12
-1.82980719674923e-12
3.20873802549283e-12
-2.99677606397305e-12
3.36539966561015e-12
-4.46803375040293e-12
3.16432103666373e-12
-5.82104243599641e-12
2.39732055627795e-12
-5.25365321819584e-12
9.89319150634988e-13
1.41178971768689e-12
1.10131716476095e-13
1.98801962093982e-11
2.49661001983393e-11
2.47376439489043e-13
2.43696935064387e-11
-1.76179252465902e-13
2.0507106741724e-11
-1.52778579484792e-12
3.38790610113373e-12
-2.41806461614766e-12
-3.97340265813591e-12
-2.79155772840949e-12
-5.31398587070502e-12
-2.78327661907082e-12
-4.45074676149585e-12
-2.58305889838876e-12
-3.19882933838875e-12
-2.30443368900111e-12
-2.11169538484297e-12
-2.01113528309138e-12
-1.28216605934286e-12
-1.73276774026141e-12
-6.71864379275623e-13
-1.48104613483333e-12
-2.2227437970822e-13
-1.2585638358624e-12
1.13556201192476e-13
-1.0638218565587e-12
3.69092465681941e-13
-8.93808154479528e-13
5.67264079812022e-13
-7.45185204243989e-13
7.23587337055893e-13
-6.1479123801332e-13
8.48617945999704e-13
-4.99808552209345e-13
9.49612542462373e-13
-3.97779944977658e-13
1.03165280732059e-12
-3.06566892211525e-13
1.09834365968797e-12
-2.24299797256761e-13
1.15229262496051e-12
-1.49322391551238e-13
1.19539408378507e-12
-8.01474438507295e-14
1.22902571666008e-12
-1.5401729969513e-14
1.25419867908763e-12
4.61988708755896e-14
1.27159938736523e-12
1.05882248727694e-13
1.28167530830385e-12
1.64846458230132e-13
1.28464909988659e-12
2.24293584991066e-13
1.28055956822421e-12
2.85454603690646e-13
1.26922887556712e-12
3.49622860552969e-13
1.25026936374579e-12
4.18183402570327e-13
1.22303789731083e-12
4.92646309374616e-13
1.18656787720037e-12
5.74689228916678e-13
1.13954613699506e-12
6.66213035563512e-13
1.08013821593214e-12
7.69387766958211e-13
1.00574343432019e-12
8.8668780223359e-13
9.12746688033914e-13
1.02095087557817e-12
7.96068513659067e-13
1.17533315415302e-12
6.48468218812808e-13
1.35313329858247e-12
4.59453078866972e-13
1.55726482349901e-12
2.13518675376601e-13
1.78903984231771e-12
-1.12416557283714e-13
2.04554316226491e-12
-5.51886027263592e-13
2.31448215186283e-12
-1.15186625427343e-12
2.56543120690338e-12
-1.97189015731064e-12
2.73356768054225e-12
-3.05434201447428e-12
2.70672582181762e-12
-4.32759580817191e-12
2.30325050935707e-12
-5.29816727408604e-12
1.40764836670383e-12
-4.22871751516612e-12
8.24004449436606e-14
2.87444326714472e-12
-2.97110542122978e-13
2.03853573485623e-11
2.47348744318395e-11
3.84358347207734e-13
2.41010175176573e-11
4.4735308220927e-14
2.09662516067253e-11
-1.10974371379543e-12
4.6449446559495e-12
-1.93791402288055e-12
-3.05202893335185e-12
-2.355696396184e-12
-4.81010534838451e-12
-2.43641916010584e-12
-4.28906833054283e-12
-2.32676370741827e-12
-3.23079190807691e-12
-2.12391733392982e-12
-2.2388049245528e-12
-1.88867564284625e-12
-1.44290719588802e-12
-1.65310416614894e-12
-8.33842214115217e-13
-1.43246307059223e-12
-3.70100348470022e-13
-1.23256606567478e-12
-1.42672932585165e-14
-1.05439644406789e-12
2.62255682110062e-13
-8.96729554101934e-13
4.80172954042567e-13
-7.5746470950302e-13
6.54119781664533e-13
-6.34278958885783e-13
7.9442314237154e-13
-5.24931619733781e-13
9.08425148678117e-13
-4.27349828522212e-13
1.00137469094796e-12
-3.39674078016313e-13
1.07709789855758e-12
-2.60224772444256e-13
1.13838580180686e-12
-1.87491146507783e-13
1.18731292913366e-12
-1.20092832235826e-13
1.2253907431803e-12
-5.67455603212073e-14
1.2537389426256e-12
3.75697216606905e-15
1.27312381068048e-12
6.25786790355125e-14
1.28404747704081e-12
1.20850650393918e-13
1.28676627228803e-12
1.7971538518676e-13
1.28131759895919e-12
2.40333731767434e-13
1.267505298207e-12
3.03924113606754e-13
1.2448930347099e-12
3.71782474121641e-13
1.2127586934339e-12
4.45303470797992e-13
1.17004668489422e-12
5.26017055124837e-13
1.11530553817647e-12
6.15623515507974e-13
1.04654117451903e-12
7.16014011598556e-13
9.60960501995933e-13
8.29265642448431e-13
8.54775215512292e-13
9.57629190004022e-13
7.22733622745954e-13
1.10341525040744e-12
5.57548543074628e-13
1.26866929562319e-12
3.489957620173e-13
1.45450996767941e-12
8.25100780989969e-14
1.65974429310602e-12
-2.62672615788415e-13
1.87822982238825e-12
-7.15114416163816e-13
2.09411177505232e-12
-1.31204549600107e-12
2.2744717359718e-12
-2.09585714912237e-12
2.35739866026124e-12
-3.07976917301599e-12
2.24678201962176e-12
-4.15746704791475e-12
1.80292605511878e-12
-4.79066128485608e-12
9.70233774430215e-13
-3.3248466962392e-12
-1.62311565138581e-13
4.08437223562261e-12
-4.51607066696176e-13
2.0742394728601e-11
2.43137642023293e-11
3.92608086264594e-13
2.37743761754599e-11
1.32168858373177e-14
2.14003042691202e-11
-9.27449534477438e-13
5.62569211730421e-12
-1.63344121967423e-12
-2.31163856060035e-12
-2.02696356195576e-12
-4.38638636507648e-12
-2.14479926958807e-12
-4.14426449573402e-12
-2.09159060022989e-12
-3.25911715911068e-12
-1.94437170543235e-12
-2.3623759238112e-12
-1.75595603026875e-12
-1.60846082570258e-12
-1.55715780902661e-12
-1.01039542622649e-12
-1.36443808081152e-12
-5.4116155468146e-13
-1.18548408799541e-12
-1.72174502244725e-13
-1.0230391291943e-12
1.20209043465478e-13
-8.7728540488401e-13
3.5412968381815e-13
-7.47169401123625e-13
5.42990826846218e-13
-6.31122250725632e-13
6.96604868979702e-13
-5.27428633645793e-13
8.22173496727494e-13
-4.34392293567712e-13
9.24966856628817e-13
-3.50417099059836e-13
1.00891959147556e-12
-2.74020446402965e-13
1.07693975818383e-12
-2.03833365801807e-13
1.13122715997283e-12
-1.3859039468931e-13
1.17339997451783e-12
-7.70928535105188e-14
1.2046567744345e-12
-1.82127042693443e-14
1.22583622138374e-12
3.91488169561059e-14
1.23748192424895e-12
9.60569518037774e-14
1.23988327812713e-12
1.53593515855817e-13
1.23307279226853e-12
2.1284861981514e-13
1.21684366095454e-12
2.74968428173291e-13
1.19071454254982e-12
3.4115477889629e-13
1.15390393705865e-12
4.12688037271187e-13
1.10528838452432e-12
4.90953112861968e-13
1.04330884885685e-12
5.77457079782558e-13
9.65857971248014e-13
6.7381029049124e-13
8.70038602068503e-13
7.81721703350281e-13
7.51973061127354e-13
9.02900738942549e-13
6.06408423907574e-13
1.03890584429106e-12
4.26217465593244e-13
1.19073255548449e-12
2.01734345102177e-13
1.3580970457412e-12
-8.03242978802183e-14
1.53805390690881e-12
-4.38069130452771e-13
1.72261121573237e-12
-8.95011900558655e-13
1.8947862810978e-12
-1.4793863993537e-12
2.02302886190784e-12
-2.21898603914163e-12
2.05366509142043e-12
-3.10483061459983e-12
1.91071170699909e-12
-4.00798163256027e-12
1.49560475879295e-12
-4.36659872789205e-12
7.87190796027158e-13
-2.60246568152217e-12
-1.32009379471188e-13
5.02124380830978e-12
-4.60753585083393e-13
2.10819869620136e-11
2.38484247821822e-11
3.31032237319411e-13
2.34631638021158e-11
-7.83220580143024e-14
2.18072714045976e-11
-8.2839458052365e-13
6.36307677055299e-12
-1.41231803146267e-12
-1.74248324574741e-12
-1.76124208784949e-12
-4.05374975150255e-12
-1.89190576090719e-12
-4.03134522213016e-12
-1.87506015998938e-12
-3.29472176010098e-12
-1.76961971891177e-12
-2.48718240948992e-12
-1.61935921070851e-12
-1.77849888343517e-12
-1.45225089766491e-12
-1.19766526439822e-12
-1.28461894017977e-12
-7.29390303477823e-13
-1.12510346620663e-12
-3.52793805856689e-13
-9.77637077609189e-13
-4.8934093658996e-14
-8.43473369355257e-13
1.9765965129799e-13
-7.2241604751825e-13
3.98952604798206e-13
-6.13547448867593e-13
5.6404044228489e-13
-5.15625425764975e-13
6.99809493704407e-13
-4.27310615712784e-13
8.11435512326762e-13
-3.47254221498121e-13
9.02853389714908e-13
-2.74168931070308e-13
9.77036611565602e-13
-2.06824259666157e-13
1.03625256489156e-12
-1.44067201338713e-13
1.08220032508075e-12
-8.47919173175836e-14
1.11613741699251e-12
-2.79470314400497e-14
1.1389584417793e-12
2.74980387715232e-14
1.15123976647593e-12
8.2544605138768e-14
1.1532997760063e-12
1.38207442188942e-13
1.14516809613038e-12
1.95509944317827e-13
1.12662788075055e-12
2.5551962059401e-13
1.09716361039007e-12
3.19346007263554e-13
1.05594951296348e-12
3.88159332181441e-13
1.00181014180752e-12
4.63195766019743e-13
9.33117903685294e-13
5.45773673919437e-13
8.47692375689131e-13
6.37244907746476e-13
7.42600309494803e-13
7.38969974977107e-13
6.13963914336732e-13
8.52178852345694e-13
4.56657273164481e-13
9.77779513484983e-13
2.63880096018894e-13
1.1159191028622e-12
2.6716322175213e-14
1.26525059702153e-12
-2.66630169870419e-13
1.42166471076032e-12
-6.31529453132694e-13
1.57626067953652e-12
-1.08671698262271e-12
1.71230644122539e-12
-1.65261620383759e-12
1.80127887666099e-12
-2.34524293521092e-12
1.7988812229541e-12
-3.13983924263791e-12
1.64728712028923e-12
-3.89376487036351e-12
1.28101049338698e-12
-4.03682604761268e-12
6.96430563224209e-13
-2.05181768668082e-12
-3.18783698419274e-14
5.71741557921763e-12
-3.93874225641761e-13
2.14071705039599e-11
2.34223676221577e-11
2.43365600119554e-13
2.31982563129627e-11
-1.57460783713401e-13
2.21566489830762e-11
-7.52675996244048e-13
6.90114580060055e-12
-1.23316782859805e-12
-1.31763302375637e-12
-1.53614575886746e-12
-3.80540958271565e-12
-1.66819760410789e-12
-3.95376879921068e-12
-1.67520655846197e-12
-3.34224350709429e-12
-1.60153536839858e-12
-2.61544403453504e-12
-1.48254161165572e-12
-1.95217938358304e-12
-1.34280501237912e-12
-1.39228229760215e-12
-1.19775601061723e-12
-9.29631287217542e-13
-1.05634486521092e-12
-5.49817551269854e-13
-9.23233692774731e-13
-2.38165317872326e-13
-8.00448771151701e-13
1.81781954864482e-14
-6.8847135455057e-13
2.29649870725813e-13
-5.86932890772123e-13
4.04503552894392e-13
-4.95006682697663e-13
5.49178468096907e-13
-4.11671431357812e-13
6.68659234123818e-13
-3.35818566729244e-13
7.66804709741976e-13
-2.66341552358009e-13
8.46593095534238e-13
-2.02153768465958e-13
9.10322896110006e-13
-1.42210797459979e-13
9.5973902150778e-13
-8.55014641483757e-14
9.96143276512066e-13
-3.10521177435833e-14
1.02046961655034e-12
2.20925396634698e-14
1.03332342666007e-12
7.48715199236959e-14
1.0350396396823e-12
1.28229057603914e-13
1.02565321339307e-12
1.83119521872569e-13
1.00493549759343e-12
2.40531825253171e-13
9.72346024863334e-13
3.01479794250032e-13
9.27031500418986e-13
3.67023306782759e-13
8.67779469069856e-13
4.38254855596445e-13
7.92927020290581e-13
5.16310073010909e-13
7.00258783030515e-13
6.02302303227625e-13
5.86861128657098e-13
6.97271655784398e-13
4.48936538446249e-13
8.0203469695465e-13
2.81577650123475e-13
9.16954317740732e-13
7.84386500579291e-14
1.04151280021374e-12
-1.68531784847759e-13
1.17360479353388e-12
-4.69557568571562e-13
1.30842627483507e-12
-8.37344563756087e-13
1.43681974576627e-12
-1.28630847078249e-12
1.54306206449536e-12
-1.83035525562955e-12
1.60221021338512e-12
-2.4763319120116e-12
1.57869092723995e-12
-3.18890758910972e-12
1.42922547300027e-12
-3.81769018296966e-12
1.11242128297043e-12
-3.79395752544714e-12
6.32197037008484e-13
-1.64526942894587e-12
5.81271372283907e-14
6.21720335254335e-12
-2.99878675053065e-13
2.16884646370522e-11
2.30669091985719e-11
1.57540681603263e-13
2.2987494837767e-11
-2.08203674215911e-13
2.2435582291359e-11
-6.82972614540379e-13
7.28803901331505e-12
-1.07971818173579e-12
-1.00447105057038e-12
-1.34092469894409e-12
-3.62488615239141e-12
-1.46846125545225e-12
-3.90552353221227e-12
-1.49088498887966e-12
-3.39844379264912e-12
-1.44134719325105e-12
-2.7432655442557e-12
-1.34794488489959e-12
-2.12373955183881e-12
-1.2318022587495e-12
-1.58664418932106e-12
-1.10704344229479e-12
-1.13283348374613e-12
-9.82470507776611e-13
-7.53189930237097e-13
-8.63108497632855e-13
-4.36782205245585e-13
-7.51503983368597e-13
-1.7321264851375e-13
-6.48646407279161e-13
4.64176237427432e-14
-5.54607340992811e-13
2.29455413647474e-13
-4.68919317865881e-13
3.81811681122365e-13
-3.90842085967576e-13
5.08203841411591e-13
-3.19488131498945e-13
6.12353352791613e-13
-2.53921650395554e-13
6.97193687456216e-13
-1.931948016027e-13
7.65022660057445e-13
-1.36375054793683e-13
8.17602762990994e-13
-8.25453452469408e-14
8.56263063125239e-13
-3.08101266783694e-14
8.81960277365905e-13
1.97101097436783e-14
8.95326367729641e-13
6.98854022401658e-14
8.96706069701188e-13
1.20587840862571e-13
8.86142362042715e-13
1.72702350208709e-13
8.63392320250776e-13
2.27132833495769e-13
8.27905476314405e-13
2.84799751980277e-13
7.78810116476644e-13
3.466541955494e-13
7.14870934515441e-13
4.13649700841507e-13
6.34420456648006e-13
4.86745619494741e-13
5.35245433186378e-13
5.66840358225294e-13
4.14489934907627e-13
6.54690361183722e-13
2.68505160411718e-13
7.50759745329421e-13
9.26687290032205e-14
8.54974318066594e-13
-1.18827459906319e-13
9.66322050491496e-13
-3.73116669560105e-13
1.08220182092371e-12
-6.78855276157041e-13
1.19747530080371e-12
-1.04625621164644e-12
1.30319003059876e-12
-1.48597012267837e-12
1.38503376057521e-12
-2.0066129550652e-12
1.42167306472006e-12
-2.60809087672909e-12
1.38503517521514e-12
-3.24843391761449e-12
1.24296940041889e-12
-3.77322743037661e-12
9.70664511566422e-13
-3.62097334191169e-12
5.74269892251338e-13
-1.3500241846128e-12
1.18842866259213e-13
6.56909081147841e-12
-2.08729062396572e-13
2.19113619615486e-11
2.27874471676084e-11
8.71032900616461e-14
2.28242992747248e-11
-2.33527731778028e-13
2.26453660148944e-11
-6.16050213074777e-13
7.56242601855446e-12
-9.45139529510931e-13
-7.77028495809245e-13
-1.16957314804924e-12
-3.4977606635615e-12
-1.28926270613765e-12
-3.88083510806109e-12
-1.32109466366285e-12
-3.46041438074136e-12
-1.28970109910102e-12
-2.86783350795028e-12
-1.21713204296864e-12
-2.28920093435133e-12
-1.12123556629561e-12
-1.77540218493193e-12
-1.01462077275828e-12
-1.33246960777515e-12
-9.056337889331e-13
-9.55502994977077e-13
-7.99380120444495e-13
-6.3677245984257e-13
-6.98704498573122e-13
-3.68115179599755e-13
-6.04956249261233e-13
-1.42106433099156e-13
-5.18546524917315e-13
4.76731197435026e-14
-4.39305635293793e-13
2.06566349807615e-13
-3.66734206456954e-13
3.38965206717363e-13
-3.00147266829759e-13
4.48416227183762e-13
-2.38768612266555e-13
5.37765450564447e-13
-1.81780012870196e-13
6.09279131861974e-13
-1.28358483356921e-13
6.6471785389318e-13
-7.76812827616532e-14
7.05421689380909e-13
-2.89348976411167e-14
7.32357663482864e-13
1.86824943560141e-14
7.46180783730073e-13
6.59714437326479e-14
7.47236234909495e-13
1.1373143056446e-13
7.35578529331773e-13
1.62771788293013e-13
7.10952723350697e-13
2.1391349522406e-13
6.72806035661554e-13
2.67985411770926e-13
6.20256547719209e-13
3.2582500717614e-13
5.52068931764279e-13
3.8825744597869e-13
4.66584878130922e-13
4.56082308413195e-13
3.61624384736712e-13
5.30001346154989e-13
2.34426274884334e-13
6.10524215534061e-13
8.15397678726358e-14
6.97826458189397e-13
-1.01331041744277e-13
7.91500017013313e-13
-3.19413298808134e-13
8.9018638740965e-13
-5.78910755968118e-13
9.91008169338196e-13
-8.86987397743955e-13
1.0887788008417e-12
-1.25159721405039e-12
1.1750568625343e-12
-1.68019681211396e-12
1.23712790476668e-12
-2.17721599691366e-12
1.25705001560187e-12
-2.73743525127593e-12
1.21295892192475e-12
-3.3150975920012e-12
1.08108354638017e-12
-3.75403542136796e-12
8.47601610100396e-13
-3.50286273574932e-12
5.18463647816711e-13
-1.13990252268128e-12
1.5260591307949e-13
6.8114721844664e-12
-1.34076295573835e-13
2.2074525081316e-11
2.25723272905025e-11
3.54742606106329e-14
2.26998795507026e-11
-2.40231691124347e-13
2.2798672850171e-11
-5.51744379566038e-13
7.75716590795534e-12
-8.25536781725305e-13
-6.1224726432478e-13
-1.01779209038352e-12
-3.40937763664736e-12
-1.12773945599213e-12
-3.87192550970634e-12
-1.16464005135838e-12
-3.52304782460588e-12
-1.14666675797352e-12
-2.98455393324699e-12
-1.09094751821233e-12
-2.44330346874031e-12
-1.01233829511985e-12
-1.95231414767874e-12
-9.21871624886536e-13
-1.5213600263568e-12
-8.27236872421804e-13
-1.14882986091878e-12
-7.3340272790403e-13
-8.29673079428133e-13
-6.4333615968744e-13
-5.57702225082669e-13
-5.58617456475247e-13
-3.26858795633257e-13
-4.79904043193144e-13
-1.31634736256165e-13
-4.0726468584845e-13
3.27357906218651e-14
-3.40402610978466e-13
1.7028448757584e-13
-2.78808255593737e-13
2.84355025743193e-13
-2.21852344663028e-13
3.77677664988907e-13
-1.68841610360535e-13
4.5246448591903e-13
-1.19059407869616e-13
5.10455714947527e-13
-7.17729379295109e-14
5.52985647456943e-13
-2.62536887007108e-14
5.81027013607559e-13
1.82253239952284e-14
5.9524674140283e-13
6.23890376400432e-14
5.95991507764755e-13
1.06965737295381e-13
5.83322598373757e-13
1.52685729491369e-13
5.56981182539778e-13
2.00287993535207e-13
5.16415208785004e-13
2.50508586763623e-13
4.60742399323666e-13
3.04082452238633e-13
3.88737289406403e-13
3.61707926702779e-13
2.98775220316421e-13
4.24038541464213e-13
1.8872875279986e-13
4.91600695802614e-13
5.59599948180273e-14
5.64706391379746e-13
-1.02761273654989e-13
6.43294038011663e-13
-2.9136501792199e-13
7.26716522898753e-13
-5.14496305311414e-13
8.13401220441777e-13
-7.7745500964855e-13
9.00367925907522e-13
-1.08602506114682e-12
9.8259706467939e-13
-1.44617424271392e-12
1.052347316371e-12
-1.86270457300688e-12
1.09854938125677e-12
-2.3368134918317e-12
1.10633558839914e-12
-2.85959937643192e-12
1.05886178633518e-12
-3.38348771682764e-12
9.38659002284125e-13
-3.75192234564767e-12
7.38900878284817e-13