/*--------------------------------*- C++ -*----------------------------------*\
  =========                 |
  \\      /  F ield         | OpenFOAM: The Open Source CFD Toolbox
   \\    /   O peration     | Website:  https://openfoam.org
    \\  /    A nd           | Version:  10
     \\/     M anipulation  |
\*---------------------------------------------------------------------------*/
FoamFile
{
    format      ascii;
    class       volScalarField;
    location    "4.8";
    object      rho;
}
// * * * * * * * * * * * * * * * * * * * * * * * * * * * * * * * * * * * * * //

dimensions      [1 -3 0 0 0 0 0];

internalField   nonuniform List<scalar> 
2500
(
1.1436563293587
1.14370623590586
1.14377162224807
1.14381059562713
1.14383048962099
1.14384011375811
1.14384459742741
1.14384660004227
1.14384745190058
1.14384779302088
1.14384792769905
1.14384797852109
1.14384799742577
1.14384800680612
1.14384801250977
1.14384801749482
1.14384802006215
1.14384802301794
1.14384802629778
1.14384802861943
1.14384803064523
1.1438480324529
1.14384803396712
1.14384803487784
1.14384803582269
1.14384803669462
1.14384803703028
1.14384803724368
1.14384803725887
1.14384803695
1.14384803639642
1.1438480353436
1.14384803392658
1.14384803211504
1.1438480300724
1.14384802736788
1.14384802296311
1.14384801469836
1.14384799231563
1.14384793669307
1.14384779258725
1.14384742857344
1.14384654708807
1.14384451270327
1.14384001532545
1.14383045611845
1.14381068137396
1.14377160462619
1.14370547633053
1.14365684173223
1.14830038693964
1.14849784285523
1.14868390756985
1.14879603298297
1.14885630754093
1.14888719294517
1.14890242194391
1.14890958680019
1.14891277742028
1.14891411655892
1.14891464905006
1.1489148493547
1.1489149209498
1.14891494660136
1.14891495635981
1.14891496102315
1.14891496314795
1.14891496498268
1.14891496688355
1.1489149683619
1.14891496974098
1.14891497110172
1.14891497229116
1.14891497302262
1.14891497365383
1.14891497427062
1.14891497455023
1.1489149747636
1.14891497499086
1.14891497488465
1.14891497463156
1.14891497422076
1.14891497303682
1.14891497132903
1.14891496936959
1.14891496540061
1.14891495479621
1.14891492541604
1.14891484264404
1.14891462039208
1.14891404687414
1.14891263847826
1.1489093590258
1.14890212067213
1.14888691671694
1.1488562614225
1.14879629626085
1.14868367543093
1.14849496615961
1.14830098381848
1.15272916473851
1.15302331441761
1.15326708020204
1.15341089528984
1.15348777884712
1.15352709815091
1.15354649472881
1.15355564447015
1.15355973622866
1.15356146337815
1.15356215232651
1.15356241196806
1.15356250446606
1.15356253627981
1.15356254713251
1.15356255110387
1.15356255255098
1.15356255347239
1.15356255436063
1.1535625551028
1.15356255588222
1.15356255676563
1.15356255759658
1.15356255810679
1.15356255847332
1.15356255885388
1.15356255903017
1.15356255919198
1.15356255946212
1.15356255949134
1.15356255948794
1.1535625595311
1.15356255861698
1.15356255711931
1.15356255551944
1.15356255144744
1.15356253890128
1.15356250204062
1.15356239717616
1.15356211301517
1.15356137885878
1.15355957814754
1.15355539328347
1.15354617143841
1.15352681378898
1.15348773253933
1.1534110496326
1.1532661298632
1.1530178206697
1.15272366537322
1.15629373536455
1.15659552122788
1.15681640636572
1.15694189791605
1.15700658574723
1.1570385546427
1.1570538804367
1.15706095407675
1.15706406752179
1.15706536695519
1.15706588085191
1.15706607316231
1.15706614109518
1.15706616403171
1.15706617151049
1.15706617388558
1.1570661745449
1.15706617484868
1.15706617513365
1.15706617540222
1.15706617575473
1.15706617624842
1.15706617677026
1.15706617709544
1.15706617727942
1.15706617747723
1.15706617756646
1.15706617766057
1.15706617785823
1.15706617792203
1.15706617800775
1.15706617825852
1.15706617770832
1.15706617672596
1.15706617585501
1.15706617330226
1.15706616480519
1.1570661389327
1.15706606401887
1.15706585792316
1.15706531818249
1.15706397542855
1.15706080457649
1.15705368161948
1.15703836592056
1.15700649822135
1.15694172559161
1.15681470026283
1.15658848513726
1.15628167670807
1.15878717554001
1.15903299742332
1.15919565567181
1.15928461906563
1.1593288380034
1.1593499613939
1.15935981075402
1.15936426706678
1.15936620312565
1.15936700492032
1.15936732067112
1.15936743853614
1.15936748001578
1.15936749388606
1.1593674982657
1.15936749945622
1.15936749963412
1.15936749964698
1.15936749966155
1.15936749969703
1.15936749979909
1.15936750002379
1.15936750031706
1.15936750050365
1.15936750057225
1.15936750064486
1.1593675006776
1.15936750072202
1.15936750083195
1.15936750088774
1.15936750098816
1.15936750126008
1.15936750099588
1.15936750051124
1.15936750016684
1.15936749877725
1.15936749392194
1.15936747882456
1.15936743445769
1.15936731109578
1.15936698497205
1.15936616520352
1.15936420473672
1.15935972713371
1.15934988141222
1.15932878182772
1.15928435513794
1.1591938982502
1.15902623016691
1.15877248752192
1.16033545582922
1.1605046931588
1.16060746308677
1.16066168407341
1.16068773898562
1.1606997986881
1.16070527904204
1.16070771494691
1.1607087622075
1.16070919378973
1.16070936355429
1.16070942695833
1.160709449253
1.16070945666355
1.16070945890315
1.16070945938384
1.16070945936926
1.16070945930472
1.16070945926165
1.16070945924853
1.16070945924683
1.16070945931156
1.16070945946145
1.16070945955639
1.16070945956512
1.16070945957262
1.16070945957854
1.16070945959697
1.16070945964544
1.16070945968395
1.16070945976561
1.16070945997127
1.16070945987164
1.16070945969303
1.16070945962668
1.16070945894004
1.16070945645629
1.16070944868252
1.16070942553407
1.16070936069489
1.16070918827395
1.16070875188153
1.16070769842104
1.16070525911085
1.16069978671218
1.16068773266907
1.16066149566527
1.16060613667935
1.16049943324359
1.16032219766692
1.16120309948996
1.16130518051682
1.16136270376645
1.1613920506801
1.16140572685841
1.16141187747188
1.16141460715716
1.16141580123111
1.16141631023283
1.16141651940177
1.16141660176047
1.16141663259777
1.16141664345107
1.16141664703869
1.16141664805926
1.1614166482197
1.16141664817335
1.16141664810427
1.16141664805126
1.16141664803589
1.16141664801812
1.16141664802049
1.1614166480883
1.16141664812605
1.16141664811018
1.16141664810026
1.16141664810168
1.16141664810832
1.16141664812669
1.16141664814979
1.16141664820342
1.16141664833105
1.16141664830497
1.16141664826461
1.16141664827533
1.16141664795441
1.16141664680936
1.16141664317303
1.16141663219981
1.16141660131376
1.1614165189422
1.16141630966759
1.16141580119159
1.16141461063564
1.16141189182503
1.16140575011225
1.16139196605377
1.16136189792879
1.16130171767913
1.16119330271015
1.16164780840388
1.16170305324849
1.16173220593633
1.16174662021732
1.16175315401428
1.16175601691949
1.1617572601135
1.16175779608094
1.16175802292638
1.16175811601965
1.16175815276297
1.16175816657271
1.16175817144208
1.1617581730421
1.1617581734637
1.16175817350379
1.16175817346951
1.1617581734212
1.16175817338264
1.16175817336456
1.16175817335343
1.1617581733499
1.16175817337131
1.16175817338113
1.16175817336521
1.16175817335525
1.1617581733533
1.16175817335546
1.16175817336342
1.16175817337566
1.16175817340565
1.16175817347403
1.16175817347297
1.16175817347124
1.16175817349072
1.16175817335722
1.16175817287148
1.16175817129456
1.1617581664767
1.16175815287874
1.1617581165993
1.16175802432181
1.16175779923598
1.16175726756654
1.16175603425503
1.16175318328099
1.16174660206577
1.1617317930592
1.16170105975451
1.16164157640397
1.16185857059833
1.16188585583584
1.16189944822684
1.16190597435598
1.16190885927156
1.16191009392357
1.16191061938785
1.16191084289868
1.16191093691833
1.16191097548838
1.16191099076203
1.16191099652824
1.161910998566
1.16191099922836
1.16191099939075
1.16191099939724
1.16191099937519
1.16191099934738
1.16191099932469
1.1619109993118
1.16191099930575
1.16191099930351
1.16191099930663
1.16191099930468
1.16191099929571
1.16191099928945
1.16191099928747
1.16191099928777
1.1619109992909
1.16191099929702
1.16191099931165
1.16191099934157
1.1619109993457
1.16191099934931
1.16191099936198
1.16191099931534
1.1619109991233
1.16191099848082
1.16191099649587
1.16191099088769
1.16191097595059
1.16191093800178
1.1619108452838
1.16191062481106
1.1619101063218
1.16190888233301
1.1619059828244
1.16189926546281
1.16188482932281
1.16185505180985
1.16195176396214
1.16196422116272
1.16197012270234
1.16197287890457
1.16197406975549
1.16197456865021
1.16197477706648
1.16197486460845
1.16197490123089
1.16197491625851
1.16197492223185
1.16197492449758
1.16197492530005
1.16197492555734
1.16197492561592
1.16197492561443
1.16197492560221
1.16197492558794
1.16197492557607
1.16197492556848
1.16197492556425
1.16197492556205
1.16197492556119
1.16197492555838
1.16197492555375
1.16197492555035
1.16197492554896
1.1619749255487
1.16197492554968
1.16197492555222
1.16197492555853
1.16197492557079
1.16197492557418
1.16197492557697
1.1619749255831
1.16197492556831
1.16197492549708
1.16197492524798
1.16197492447309
1.16197492228488
1.16197491647679
1.16197490176675
1.16197486583918
1.16197478000061
1.16197457572094
1.16197408420497
1.16197289178454
1.16197005220508
1.16196374040139
1.16194996365961
1.16199049410534
1.16199580438563
1.16199821319274
1.16199930918151
1.16199977287719
1.16199996341789
1.16200004166001
1.16200007413596
1.16200008765296
1.16200009320266
1.16200009541718
1.16200009626096
1.16200009656025
1.16200009665449
1.16200009667418
1.16200009667203
1.16200009666583
1.16200009665896
1.16200009665311
1.16200009664898
1.16200009664622
1.16200009664445
1.16200009664313
1.16200009664112
1.16200009663869
1.16200009663683
1.16200009663582
1.16200009663531
1.16200009663532
1.16200009663609
1.16200009663839
1.16200009664293
1.16200009664461
1.16200009664599
1.16200009664824
1.16200009664398
1.16200009661883
1.16200009652624
1.16200009623745
1.16200009542359
1.16200009327392
1.16200008785512
1.16200007464779
1.162000042998
1.16199996691079
1.16199978066072
1.16199931877296
1.16199818971623
1.16199559698568
1.16198964694143
1.16200571179576
1.16200784242351
1.16200877369364
1.16200918710702
1.16200935865355
1.16200942791774
1.16200945591165
1.16200946740089
1.16200947215965
1.16200947411465
1.16200947489759
1.16200947519703
1.16200947530318
1.16200947533582
1.16200947534181
1.16200947534017
1.16200947533708
1.16200947533378
1.16200947533087
1.16200947532861
1.16200947532687
1.16200947532554
1.1620094753244
1.16200947532305
1.16200947532163
1.16200947532045
1.16200947531962
1.16200947531897
1.16200947531856
1.16200947531851
1.16200947531903
1.16200947532036
1.16200947532085
1.16200947532125
1.16200947532172
1.16200947532045
1.16200947531183
1.16200947527857
1.16200947517515
1.16200947488487
1.16200947412281
1.16200947221338
1.16200946757596
1.16200945644751
1.1620094294676
1.16200936239811
1.16200919265415
1.16200876724087
1.16200775919375
1.16200534096226
1.16201138847592
1.16201219841234
1.16201254151011
1.16201269033805
1.16201275099103
1.16201277509219
1.16201278469153
1.16201278858935
1.16201279019604
1.16201279085631
1.16201279112147
1.16201279122305
1.16201279125885
1.1620127912694
1.16201279127081
1.16201279126964
1.16201279126797
1.16201279126624
1.16201279126464
1.16201279126328
1.16201279126209
1.16201279126106
1.16201279126011
1.16201279125911
1.1620127912581
1.1620127912572
1.16201279125643
1.16201279125574
1.16201279125515
1.16201279125472
1.1620127912545
1.16201279125457
1.16201279125443
1.16201279125429
1.16201279125415
1.16201279125354
1.16201279125043
1.16201279123876
1.16201279120292
1.16201279110309
1.16201279084302
1.162012790196
1.16201278863211
1.16201278487947
1.16201277571942
1.16201275263409
1.1620126930981
1.16201254028266
1.16201216709657
1.16201123612174
1.16201340084773
1.16201369416114
1.16201381521244
1.16201386660157
1.16201388719583
1.16201389526079
1.16201389843013
1.16201389970396
1.16201390022639
1.16201390044094
1.16201390052714
1.16201390056003
1.16201390057135
1.16201390057432
1.16201390057427
1.16201390057338
1.16201390057231
1.16201390057121
1.16201390057016
1.16201390056918
1.16201390056825
1.16201390056738
1.16201390056654
1.16201390056569
1.16201390056484
1.16201390056404
1.16201390056329
1.16201390056258
1.16201390056192
1.16201390056132
1.16201390056081
1.16201390056042
1.16201390055999
1.16201390055958
1.1620139005592
1.1620139005587
1.16201390055739
1.16201390055324
1.16201390054108
1.16201390050777
1.16201390042193
1.16201390021018
1.16201389970136
1.16201389848213
1.16201389549036
1.16201388785896
1.16201386783163
1.16201381523646
1.16201368303947
1.16201334167136
1.16201407364813
1.16201417531171
1.1620142163784
1.16201423346801
1.16201424021026
1.16201424281557
1.16201424382675
1.1620142442291
1.16201424439311
1.16201424446023
1.16201424448702
1.162014244497
1.16201424450015
1.16201424450063
1.16201424450013
1.16201424449937
1.16201424449853
1.16201424449768
1.16201424449684
1.16201424449601
1.1620142444952
1.1620142444944
1.16201424449361
1.16201424449281
1.16201424449203
1.16201424449126
1.16201424449052
1.16201424448979
1.16201424448909
1.16201424448843
1.16201424448781
1.16201424448725
1.1620142444867
1.16201424448617
1.16201424448568
1.16201424448519
1.16201424448446
1.16201424448284
1.16201424447867
1.16201424446777
1.16201424444022
1.16201424437302
1.16201424421271
1.16201424382962
1.16201424288601
1.16201424045357
1.16201423396578
1.16201421655019
1.16201417155826
1.16201405178326
1.16201427807277
1.16201431193163
1.16201432537285
1.162014330865
1.16201433300029
1.16201433381519
1.16201433412773
1.16201433425073
1.16201433430038
1.16201433432044
1.1620143343282
1.16201433433082
1.16201433433134
1.16201433433103
1.1620143343304
1.16201433432969
1.16201433432894
1.16201433432818
1.16201433432741
1.16201433432664
1.16201433432587
1.1620143343251
1.16201433432433
1.16201433432356
1.16201433432279
1.16201433432203
1.16201433432129
1.16201433432055
1.16201433431984
1.16201433431915
1.16201433431849
1.16201433431786
1.16201433431726
1.16201433431669
1.16201433431616
1.16201433431565
1.16201433431509
1.16201433431429
1.16201433431274
1.16201433430913
1.16201433430043
1.16201433427965
1.16201433423059
1.16201433411384
1.16201433382556
1.16201433307559
1.16201433104477
1.16201432547759
1.16201431071563
1.16201427034294
1.16201432522682
1.16201433609943
1.16201434035577
1.16201434206621
1.16201434272206
1.16201434296931
1.16201434306292
1.16201434309919
1.16201434311349
1.16201434311901
1.16201434312087
1.16201434312121
1.16201434312091
1.16201434312035
1.1620143431197
1.162014343119
1.16201434311828
1.16201434311755
1.16201434311681
1.16201434311606
1.16201434311531
1.16201434311454
1.16201434311378
1.16201434311301
1.16201434311225
1.16201434311149
1.16201434311074
1.16201434311001
1.16201434310929
1.16201434310859
1.16201434310791
1.16201434310726
1.16201434310663
1.16201434310604
1.16201434310548
1.16201434310496
1.16201434310446
1.16201434310391
1.16201434310318
1.16201434310187
1.16201434309908
1.16201434309275
1.1620143430781
1.16201434304352
1.16201434295802
1.1620143427338
1.16201434211785
1.16201434039487
1.16201433571214
1.16201432259409
1.16201432148892
1.16201432486511
1.16201432617214
1.16201432668944
1.1620143268851
1.16201432695783
1.16201432698485
1.16201432699496
1.16201432699866
1.16201432699981
1.16201432699991
1.16201432699956
1.16201432699902
1.16201432699839
1.16201432699773
1.16201432699704
1.16201432699633
1.16201432699561
1.16201432699488
1.16201432699414
1.16201432699338
1.16201432699262
1.16201432699186
1.1620143269911
1.16201432699033
1.16201432698957
1.16201432698882
1.16201432698808
1.16201432698735
1.16201432698665
1.16201432698596
1.16201432698529
1.16201432698466
1.16201432698406
1.16201432698349
1.16201432698296
1.16201432698246
1.16201432698199
1.1620143269815
1.16201432698089
1.16201432697989
1.16201432697792
1.16201432697361
1.16201432696363
1.16201432693899
1.16201432687388
1.16201432669248
1.16201432617502
1.16201432473538
1.1620143206145
1.16201430183174
1.16201430284807
1.16201430323795
1.16201430339004
1.16201430344669
1.16201430346727
1.16201430347458
1.16201430347703
1.16201430347764
1.16201430347753
1.16201430347712
1.16201430347657
1.16201430347596
1.16201430347532
1.16201430347466
1.16201430347397
1.16201430347327
1.16201430347256
1.16201430347183
1.16201430347108
1.16201430347033
1.16201430346957
1.16201430346881
1.16201430346804
1.16201430346727
1.16201430346651
1.16201430346576
1.16201430346501
1.16201430346428
1.16201430346357
1.16201430346287
1.1620143034622
1.16201430346156
1.16201430346094
1.16201430346037
1.16201430345983
1.16201430345933
1.16201430345887
1.16201430345845
1.16201430345803
1.16201430345756
1.16201430345686
1.16201430345556
1.16201430345273
1.16201430344582
1.16201430342746
1.16201430337552
1.16201430322445
1.16201430279468
1.16201430153997
1.1620142773481
1.16201427764524
1.16201427775828
1.16201427780169
1.16201427781748
1.1620142778229
1.16201427782455
1.16201427782482
1.16201427782457
1.16201427782411
1.16201427782356
1.16201427782296
1.16201427782234
1.1620142778217
1.16201427782104
1.16201427782036
1.16201427781966
1.16201427781894
1.16201427781821
1.16201427781747
1.16201427781672
1.16201427781596
1.16201427781519
1.16201427781442
1.16201427781366
1.16201427781289
1.16201427781213
1.16201427781138
1.16201427781065
1.16201427780993
1.16201427780923
1.16201427780855
1.1620142778079
1.16201427780728
1.16201427780669
1.16201427780614
1.16201427780563
1.16201427780517
1.16201427780476
1.16201427780439
1.16201427780405
1.1620142778037
1.16201427780324
1.16201427780242
1.16201427780053
1.16201427779551
1.16201427778105
1.16201427773815
1.16201427761344
1.16201427724241
1.16201425144282
1.16201425152726
1.16201425155902
1.16201425157094
1.16201425157503
1.16201425157618
1.16201425157626
1.16201425157594
1.16201425157546
1.16201425157492
1.16201425157434
1.16201425157374
1.16201425157312
1.16201425157248
1.16201425157182
1.16201425157115
1.16201425157045
1.16201425156974
1.16201425156901
1.16201425156827
1.16201425156752
1.16201425156675
1.16201425156599
1.16201425156521
1.16201425156444
1.16201425156367
1.16201425156291
1.16201425156216
1.16201425156142
1.16201425156069
1.16201425155998
1.1620142515593
1.16201425155864
1.16201425155801
1.16201425155742
1.16201425155686
1.16201425155634
1.16201425155587
1.16201425155545
1.16201425155508
1.16201425155477
1.1620142515545
1.16201425155426
1.16201425155396
1.16201425155344
1.1620142515521
1.16201425154819
1.16201425153635
1.16201425150121
1.16201425139455
1.16201422512989
1.16201422515314
1.16201422516167
1.1620142251647
1.16201422516555
1.16201422516554
1.16201422516521
1.16201422516474
1.16201422516423
1.16201422516368
1.1620142251631
1.16201422516251
1.1620142251619
1.16201422516126
1.16201422516061
1.16201422515994
1.16201422515924
1.16201422515853
1.16201422515781
1.16201422515706
1.16201422515631
1.16201422515555
1.16201422515478
1.162014225154
1.16201422515323
1.16201422515246
1.16201422515169
1.16201422515093
1.16201422515018
1.16201422514945
1.16201422514874
1.16201422514805
1.16201422514738
1.16201422514675
1.16201422514614
1.16201422514557
1.16201422514505
1.16201422514456
1.16201422514413
1.16201422514375
1.16201422514343
1.16201422514316
1.16201422514295
1.16201422514278
1.16201422514259
1.16201422514223
1.16201422514119
1.16201422513803
1.16201422512849
1.16201422509873
1.16201419870296
1.16201419870905
1.16201419871111
1.16201419871172
1.16201419871171
1.16201419871141
1.16201419871099
1.16201419871052
1.16201419871001
1.16201419870947
1.16201419870891
1.16201419870833
1.16201419870772
1.1620141987071
1.16201419870645
1.16201419870578
1.16201419870509
1.16201419870438
1.16201419870365
1.16201419870291
1.16201419870215
1.16201419870139
1.16201419870062
1.16201419869984
1.16201419869906
1.16201419869829
1.16201419869752
1.16201419869676
1.162014198696
1.16201419869527
1.16201419869455
1.16201419869385
1.16201419869318
1.16201419869253
1.16201419869192
1.16201419869134
1.1620141986908
1.1620141986903
1.16201419868986
1.16201419868946
1.16201419868912
1.16201419868884
1.16201419868861
1.16201419868845
1.16201419868832
1.16201419868819
1.16201419868789
1.16201419868708
1.16201419868466
1.16201419867669
1.16201417224488
1.1620141722463
1.16201417224661
1.16201417224659
1.16201417224637
1.16201417224602
1.16201417224561
1.16201417224515
1.16201417224466
1.16201417224414
1.1620141722436
1.16201417224303
1.16201417224243
1.16201417224181
1.16201417224117
1.1620141722405
1.16201417223982
1.16201417223911
1.16201417223838
1.16201417223764
1.16201417223689
1.16201417223612
1.16201417223535
1.16201417223457
1.16201417223379
1.16201417223301
1.16201417223224
1.16201417223147
1.16201417223071
1.16201417222997
1.16201417222924
1.16201417222854
1.16201417222786
1.1620141722272
1.16201417222658
1.16201417222599
1.16201417222544
1.16201417222493
1.16201417222446
1.16201417222405
1.16201417222369
1.16201417222338
1.16201417222314
1.16201417222295
1.16201417222281
1.1620141722227
1.16201417222258
1.16201417222236
1.16201417222187
1.16201417221991
1.1620141457785
1.16201414577867
1.16201414577854
1.16201414577837
1.16201414577812
1.16201414577779
1.1620141457774
1.16201414577697
1.1620141457765
1.162014145776
1.16201414577547
1.16201414577492
1.16201414577433
1.16201414577372
1.16201414577309
1.16201414577242
1.16201414577174
1.16201414577104
1.16201414577031
1.16201414576957
1.16201414576881
1.16201414576805
1.16201414576727
1.16201414576649
1.16201414576571
1.16201414576492
1.16201414576415
1.16201414576337
1.16201414576261
1.16201414576186
1.16201414576113
1.16201414576042
1.16201414575973
1.16201414575907
1.16201414575843
1.16201414575783
1.16201414575727
1.16201414575674
1.16201414575626
1.16201414575583
1.16201414575545
1.16201414575512
1.16201414575484
1.16201414575462
1.16201414575445
1.16201414575433
1.16201414575421
1.16201414575413
1.16201414575413
1.16201414575379
1.16201411930994
1.1620141193098
1.16201411930957
1.16201411930939
1.16201411930916
1.16201411930885
1.1620141193085
1.16201411930809
1.16201411930765
1.16201411930717
1.16201411930666
1.16201411930611
1.16201411930554
1.16201411930494
1.16201411930431
1.16201411930365
1.16201411930297
1.16201411930227
1.16201411930154
1.1620141193008
1.16201411930005
1.16201411929928
1.1620141192985
1.16201411929772
1.16201411929693
1.16201411929615
1.16201411929536
1.16201411929459
1.16201411929382
1.16201411929307
1.16201411929233
1.16201411929161
1.16201411929091
1.16201411929024
1.16201411928959
1.16201411928898
1.16201411928841
1.16201411928787
1.16201411928737
1.16201411928692
1.16201411928651
1.16201411928616
1.16201411928585
1.1620141192856
1.1620141192854
1.16201411928524
1.1620141192851
1.16201411928502
1.16201411928514
1.16201411928521
1.16201409284083
1.16201409284062
1.16201409284038
1.16201409284023
1.16201409284002
1.16201409283975
1.16201409283942
1.16201409283904
1.16201409283862
1.16201409283816
1.16201409283767
1.16201409283714
1.16201409283658
1.16201409283598
1.16201409283536
1.16201409283471
1.16201409283403
1.16201409283333
1.16201409283261
1.16201409283187
1.16201409283112
1.16201409283035
1.16201409282957
1.16201409282878
1.16201409282799
1.1620140928272
1.16201409282642
1.16201409282564
1.16201409282486
1.1620140928241
1.16201409282336
1.16201409282263
1.16201409282192
1.16201409282124
1.16201409282059
1.16201409281996
1.16201409281937
1.16201409281882
1.16201409281831
1.16201409281783
1.16201409281741
1.16201409281702
1.16201409281669
1.16201409281641
1.16201409281617
1.16201409281598
1.16201409281581
1.16201409281571
1.16201409281583
1.162014092816
1.16201406637159
1.16201406637137
1.16201406637115
1.16201406637102
1.16201406637085
1.1620140663706
1.1620140663703
1.16201406636995
1.16201406636956
1.16201406636912
1.16201406636864
1.16201406636812
1.16201406636757
1.16201406636699
1.16201406636637
1.16201406636573
1.16201406636505
1.16201406636436
1.16201406636364
1.1620140663629
1.16201406636214
1.16201406636137
1.16201406636059
1.1620140663598
1.16201406635901
1.16201406635822
1.16201406635743
1.16201406635664
1.16201406635587
1.1620140663551
1.16201406635435
1.16201406635361
1.1620140663529
1.16201406635221
1.16201406635154
1.16201406635091
1.1620140663503
1.16201406634973
1.1620140663492
1.16201406634871
1.16201406634826
1.16201406634785
1.16201406634749
1.16201406634718
1.16201406634691
1.16201406634668
1.16201406634648
1.16201406634635
1.16201406634645
1.16201406634663
1.1620140399023
1.1620140399021
1.1620140399019
1.1620140399018
1.16201403990166
1.16201403990145
1.16201403990117
1.16201403990085
1.16201403990048
1.16201403990006
1.1620140398996
1.16201403989909
1.16201403989855
1.16201403989798
1.16201403989737
1.16201403989673
1.16201403989606
1.16201403989537
1.16201403989465
1.16201403989391
1.16201403989316
1.16201403989239
1.1620140398916
1.16201403989081
1.16201403989002
1.16201403988922
1.16201403988843
1.16201403988764
1.16201403988685
1.16201403988608
1.16201403988532
1.16201403988458
1.16201403988386
1.16201403988316
1.16201403988248
1.16201403988183
1.16201403988122
1.16201403988063
1.16201403988008
1.16201403987957
1.1620140398791
1.16201403987867
1.16201403987828
1.16201403987794
1.16201403987764
1.16201403987737
1.16201403987714
1.16201403987697
1.16201403987706
1.16201403987723
1.16201401343301
1.16201401343282
1.16201401343264
1.16201401343258
1.16201401343246
1.16201401343228
1.16201401343204
1.16201401343174
1.16201401343139
1.16201401343099
1.16201401343054
1.16201401343005
1.16201401342953
1.16201401342896
1.16201401342836
1.16201401342773
1.16201401342706
1.16201401342637
1.16201401342565
1.16201401342492
1.16201401342416
1.16201401342339
1.16201401342261
1.16201401342182
1.16201401342102
1.16201401342022
1.16201401341942
1.16201401341862
1.16201401341784
1.16201401341706
1.16201401341629
1.16201401341554
1.16201401341481
1.1620140134141
1.16201401341342
1.16201401341276
1.16201401341212
1.16201401341153
1.16201401341096
1.16201401341043
1.16201401340993
1.16201401340948
1.16201401340906
1.16201401340869
1.16201401340836
1.16201401340806
1.16201401340779
1.1620140134076
1.16201401340765
1.16201401340781
1.1620139869637
1.16201398696352
1.16201398696337
1.16201398696334
1.16201398696326
1.16201398696311
1.16201398696289
1.16201398696261
1.16201398696229
1.16201398696191
1.16201398696148
1.162013986961
1.16201398696049
1.16201398695993
1.16201398695934
1.16201398695871
1.16201398695805
1.16201398695736
1.16201398695665
1.16201398695591
1.16201398695516
1.16201398695439
1.1620139869536
1.16201398695281
1.16201398695201
1.1620139869512
1.1620139869504
1.1620139869496
1.16201398694881
1.16201398694802
1.16201398694725
1.1620139869465
1.16201398694576
1.16201398694504
1.16201398694434
1.16201398694367
1.16201398694302
1.16201398694241
1.16201398694183
1.16201398694128
1.16201398694076
1.16201398694028
1.16201398693984
1.16201398693944
1.16201398693907
1.16201398693874
1.16201398693844
1.16201398693821
1.16201398693824
1.16201398693838
1.16201396049437
1.16201396049422
1.16201396049409
1.1620139604941
1.16201396049404
1.16201396049392
1.16201396049373
1.16201396049348
1.16201396049317
1.16201396049281
1.1620139604924
1.16201396049194
1.16201396049144
1.16201396049089
1.1620139604903
1.16201396048968
1.16201396048903
1.16201396048834
1.16201396048763
1.1620139604869
1.16201396048614
1.16201396048537
1.16201396048458
1.16201396048379
1.16201396048298
1.16201396048218
1.16201396048137
1.16201396048057
1.16201396047977
1.16201396047898
1.1620139604782
1.16201396047744
1.16201396047669
1.16201396047596
1.16201396047525
1.16201396047457
1.16201396047391
1.16201396047328
1.16201396047268
1.16201396047211
1.16201396047158
1.16201396047107
1.16201396047061
1.16201396047017
1.16201396046978
1.16201396046942
1.16201396046909
1.16201396046882
1.16201396046882
1.16201396046894
1.16201393402503
1.16201393402489
1.1620139340248
1.16201393402483
1.16201393402481
1.16201393402472
1.16201393402456
1.16201393402433
1.16201393402405
1.16201393402371
1.16201393402331
1.16201393402286
1.16201393402237
1.16201393402183
1.16201393402125
1.16201393402064
1.16201393401999
1.16201393401931
1.1620139340186
1.16201393401786
1.16201393401711
1.16201393401634
1.16201393401555
1.16201393401475
1.16201393401395
1.16201393401314
1.16201393401233
1.16201393401152
1.16201393401072
1.16201393400992
1.16201393400914
1.16201393400836
1.16201393400761
1.16201393400687
1.16201393400615
1.16201393400546
1.16201393400479
1.16201393400414
1.16201393400353
1.16201393400294
1.16201393400238
1.16201393400186
1.16201393400136
1.1620139340009
1.16201393400048
1.16201393400008
1.16201393399972
1.16201393399941
1.16201393399938
1.16201393399948
1.16201390755566
1.16201390755555
1.16201390755548
1.16201390755556
1.16201390755556
1.1620139075555
1.16201390755537
1.16201390755517
1.1620139075549
1.16201390755458
1.1620139075542
1.16201390755377
1.16201390755328
1.16201390755276
1.16201390755219
1.16201390755158
1.16201390755093
1.16201390755025
1.16201390754954
1.16201390754881
1.16201390754806
1.16201390754729
1.1620139075465
1.1620139075457
1.16201390754489
1.16201390754408
1.16201390754327
1.16201390754245
1.16201390754165
1.16201390754085
1.16201390754005
1.16201390753927
1.16201390753851
1.16201390753776
1.16201390753704
1.16201390753633
1.16201390753565
1.16201390753499
1.16201390753436
1.16201390753375
1.16201390753317
1.16201390753262
1.16201390753211
1.16201390753162
1.16201390753116
1.16201390753073
1.16201390753034
1.16201390752999
1.16201390752993
1.16201390753001
1.16201388108626
1.16201388108618
1.16201388108615
1.16201388108626
1.1620138810863
1.16201388108627
1.16201388108616
1.16201388108598
1.16201388108574
1.16201388108543
1.16201388108507
1.16201388108465
1.16201388108418
1.16201388108366
1.1620138810831
1.16201388108249
1.16201388108185
1.16201388108118
1.16201388108047
1.16201388107974
1.16201388107899
1.16201388107821
1.16201388107743
1.16201388107663
1.16201388107582
1.162013881075
1.16201388107419
1.16201388107337
1.16201388107256
1.16201388107175
1.16201388107095
1.16201388107017
1.16201388106939
1.16201388106864
1.1620138810679