/*--------------------------------*- C++ -*----------------------------------*\
  =========                 |
  \\      /  F ield         | OpenFOAM: The Open Source CFD Toolbox
   \\    /   O peration     | Website:  https://openfoam.org
    \\  /    A nd           | Version:  10
     \\/     M anipulation  |
\*---------------------------------------------------------------------------*/
FoamFile
{
    format      ascii;
    class       volScalarField;
    location    "4.8";
    object      T;
}
// * * * * * * * * * * * * * * * * * * * * * * * * * * * * * * * * * * * * * //

dimensions      [0 0 0 1 0 0 0];

internalField   nonuniform List<scalar> 
2500
(
304.815725731479
304.802424854643
304.785000124165
304.774615101814
304.769314331419
304.766750038782
304.765555407202
304.765021832288
304.764794864443
304.764703976896
304.764668093395
304.764654552335
304.76464951526
304.764647015817
304.764645495976
304.764644167591
304.764643483373
304.76464269565
304.764641821584
304.764641202813
304.764640662869
304.76464018104
304.764639777396
304.764639534553
304.764639282613
304.764639050108
304.764638960486
304.764638903443
304.764638899216
304.764638981338
304.764639128666
304.764639409017
304.764639786413
304.76464026893
304.764640813031
304.764641533493
304.764642706971
304.764644908905
304.764650872408
304.764665692271
304.764704087439
304.764801074497
304.765035935967
304.765577975544
304.766776259691
304.769323252271
304.774592248236
304.785004813981
304.802627278693
304.815589163893
303.582956306845
303.530762698157
303.481596550921
303.451975977651
303.436055420589
303.427898184174
303.423876169244
303.421983950448
303.421141324025
303.420787665697
303.420647038192
303.420594138959
303.420575231032
303.42056845647
303.420565879161
303.420564647428
303.420564086101
303.420563601375
303.420563099178
303.420562708562
303.420562344163
303.420561984605
303.420561670287
303.420561476919
303.420561310027
303.420561146948
303.420561072917
303.420561016383
303.420560956186
303.420560984061
303.420561050734
303.420561159064
303.420561471584
303.420561922453
303.420562439795
303.420563487849
303.420566288278
303.420574047268
303.420595906683
303.42065460182
303.420806064028
303.421178012636
303.422044099331
303.423955729311
303.427971132062
303.436067595646
303.451906427544
303.481657875971
303.531522961577
303.582798500509
302.416585782694
302.339435790737
302.275530378179
302.237840617575
302.217695523744
302.207394084879
302.202312548023
302.199915547988
302.198843623351
302.198391161405
302.198210677662
302.198142659353
302.198118427554
302.198110093165
302.198107249919
302.198106209367
302.198105830087
302.198105588523
302.198105355641
302.198105161023
302.198104956646
302.198104725024
302.198104507147
302.198104373293
302.198104277082
302.198104177196
302.198104130828
302.198104088256
302.198104017308
302.19810400948
302.198104010205
302.19810399874
302.198104238059
302.198104630259
302.19810504924
302.198106115852
302.198109402444
302.198119058699
302.198146529882
302.198220971305
302.198413297988
302.198885030832
302.199981346694
302.202397237123
302.207468577992
302.217707650817
302.23780016804
302.275779459775
302.340876332003
302.418028532914
301.484302628919
301.405637531076
301.348086457738
301.315399735805
301.298553298002
301.290228439898
301.28623769064
301.284395790775
301.283585090224
301.283246735908
301.283112924505
301.283062849547
301.283045160675
301.283039188178
301.283037240646
301.28303662203
301.283036450174
301.283036370889
301.283036296497
301.283036226376
301.283036134394
301.283036005651
301.283035869579
301.283035784714
301.283035736616
301.283035684918
301.283035661498
301.283035636812
301.283035585166
301.28303556838
301.283035545894
301.283035480437
301.283035623549
301.283035879199
301.283036105846
301.283036770417
301.283038982811
301.283045719519
301.283065225877
301.283118890095
301.283259430683
301.283609064907
301.284434713494
301.286289455369
301.290277577127
301.298576085092
301.3154446104
301.348530888498
301.407471122316
301.487446749229
300.835571782508
300.771766897426
300.729562624766
300.706484665923
300.695015166441
300.689536494326
300.686981981415
300.6858262141
300.685324090122
300.685116142147
300.685034251178
300.685003682431
300.684992924424
300.68498932697
300.684988190931
300.684987881992
300.684987835673
300.684987832152
300.684987828185
300.684987818794
300.684987792132
300.684987733661
300.684987657408
300.684987608821
300.684987590838
300.684987571818
300.68498756314
300.684987551437
300.68498752275
300.684987508108
300.684987481897
300.684987411214
300.684987479583
300.684987605133
300.684987694318
300.684988054585
300.684989313706
300.684993229142
300.685004735705
300.685036729851
300.685121310854
300.685333920218
300.68584237435
300.687003663393
300.689557232821
300.695029731021
300.706553120266
300.730018546624
300.773523020608
300.839385017182
300.434148461192
300.390335907723
300.363736824807
300.349705157376
300.342962960195
300.339842388434
300.338424311994
300.337794010354
300.337523027582
300.337411354058
300.337367426777
300.337351020628
300.337345251655
300.337343333991
300.337342754316
300.33734262976
300.337342633354
300.337342649871
300.337342660826
300.337342664031
300.337342664277
300.337342647338
300.337342608359
300.337342583601
300.33734258115
300.33734257902
300.337342577301
300.337342572349
300.337342559631
300.337342549493
300.337342528197
300.337342474821
300.33734250045
300.33734254652
300.337342563553
300.337342741097
300.337343383659
300.33734539504
300.337351384677
300.33736816194
300.337412776353
300.337525694335
300.337798281185
300.338429463833
300.339845481702
300.342964588981
300.349753906824
300.364080091901
300.391697408497
300.43758129895
300.209659120131
300.183270095246
300.168401770238
300.160816892335
300.157282336527
300.155692761122
300.154987301761
300.154678706477
300.154547160696
300.154493103283
300.154471818499
300.154463848811
300.154461043746
300.154460116405
300.154459852481
300.154459810841
300.154459822639
300.154459840308
300.15445985382
300.154459857602
300.154459862002
300.154459861198
300.154459843477
300.15445983353
300.15445983744
300.154459839815
300.154459839259
300.154459837361
300.154459832435
300.154459826293
300.154459812265
300.15445977912
300.154459785708
300.154459795994
300.154459793087
300.154459875898
300.154460171707
300.154461111367
300.15446394717
300.154471929223
300.154493217116
300.154547301642
300.15467871138
300.15498639732
300.155689046091
300.157276321026
300.160838758149
300.168610043138
300.184165193488
300.212191929349
300.09472424165
300.080453221807
300.072922955738
300.069199823602
300.067512208856
300.066772754783
300.066451653731
300.066313220345
300.06625462909
300.066230584216
300.066221093768
300.066217526747
300.066216268893
300.066215855464
300.066215746401
300.066215735868
300.066215744544
300.066215756837
300.066215766607
300.066215771086
300.066215773771
300.066215774488
300.066215768764
300.066215766035
300.066215769955
300.066215772339
300.066215772655
300.066215771913
300.06621576968
300.066215766345
300.066215758431
300.066215740608
300.066215740729
300.06621574103
300.066215735864
300.066215770219
300.066215895562
300.066216302755
300.066217547047
300.066221059134
300.066230429553
300.066254263526
300.066312400121
300.066449723236
300.066768271627
300.067504643886
300.069204506189
300.073029595192
300.080968157853
300.096334190459
300.040279953619
300.03323393357
300.029724017356
300.02803882642
300.027293883249
300.026975072275
300.026839387362
300.026781672535
300.02675739476
300.0267474351
300.026743491004
300.026742001903
300.026741475552
300.026741304352
300.026741262248
300.026741260395
300.026741265908
300.026741272905
300.026741278574
300.026741281712
300.026741283083
300.026741283467
300.02674128247
300.026741282779
300.026741284903
300.026741286329
300.026741286654
300.026741286393
300.026741285403
300.02674128365
300.026741279704
300.026741271817
300.026741270597
300.026741269518
300.026741266111
300.026741278028
300.026741327499
300.026741493297
300.026742005755
300.026743453813
300.02674731079
300.026757109835
300.026781051322
300.026837981501
300.0269718652
300.027287922609
300.028036633886
300.029771205459
300.033499003887
300.041188648243
300.016208641364
300.01299222336
300.01146848443
300.010756856041
300.010449389151
300.010320579093
300.010266767837
300.010244165166
300.01023470944
300.010230829288
300.010229286868
300.010228701716
300.010228494359
300.01022842776
300.010228412463
300.010228412669
300.010228415643
300.010228419142
300.010228422018
300.010228423787
300.010228424687
300.010228425062
300.01022842509
300.010228425621
300.010228426625
300.010228427311
300.010228427483
300.010228427364
300.010228426933
300.010228426101
300.010228424302
300.010228420976
300.010228419946
300.01022841908
300.010228417359
300.010228421052
300.010228439328
300.01022850354
300.010228703519
300.01022926842
300.010230767957
300.010234565914
300.010243842059
300.010266004772
300.010318747864
300.01044565269
300.01075352472
300.011486680381
300.013116347522
300.016673474698
300.006202008964
300.004830990733
300.00420908426
300.003926122156
300.00380640531
300.003757211417
300.003737010715
300.003728625898
300.003725135909
300.003723702919
300.003723131009
300.003722912996
300.003722835557
300.003722811054
300.003722805798
300.003722806174
300.003722807592
300.003722809181
300.003722810503
300.003722811379
300.003722811897
300.003722812162
300.003722812309
300.003722812633
300.003722813066
300.003722813356
300.003722813427
300.003722813375
300.003722813192
300.003722812816
300.003722812054
300.003722810719
300.003722810129
300.003722809625
300.003722808907
300.003722809882
300.003722816258
300.00372284006
300.003722914532
300.003723124582
300.003723679533
300.003725078528
300.003728488392
300.003736659755
300.003756303973
300.003804390003
300.003923639995
300.004215139511
300.004884531464
300.006420726517
300.002266277399
300.001716200683
300.001475769633
300.001369036334
300.001324747041
300.001306864491
300.001299636933
300.00129667049
300.001295441707
300.001294936798
300.001294734491
300.001294657014
300.001294629438
300.001294620839
300.001294619118
300.001294619361
300.001294619977
300.001294620645
300.001294621206
300.001294621599
300.001294621856
300.001294622004
300.001294622103
300.001294622258
300.001294622431
300.001294622544
300.001294622569
300.00129462255
300.001294622474
300.001294622311
300.001294622007
300.001294621499
300.001294621216
300.001294620967
300.001294620706
300.001294620906
300.001294623017
300.001294631501
300.001294658114
300.001294732989
300.001294929686
300.001295422631
300.001296619906
300.001299493049
300.001306458684
300.00132377451
300.001367598338
300.001477429651
300.001737682598
300.00236201187
300.000793866747
300.000584762404
300.000496183482
300.000457759775
300.000442100515
300.000435877969
300.000433399444
300.00043239292
300.000431977924
300.000431807281
300.00043173865
300.000431712253
300.000431702839
300.000431699943
300.000431699404
300.000431699525
300.000431699773
300.000431700035
300.000431700258
300.00043170042
300.000431700532
300.000431700603
300.000431700653
300.000431700718
300.000431700783
300.000431700824
300.000431700832
300.000431700824
300.000431700793
300.000431700728
300.000431700614
300.000431700429
300.000431700308
300.000431700198
300.000431700094
300.000431700123
300.000431700811
300.000431703722
300.000431712888
300.00043173859
300.000431805688
300.000431972709
300.000432376477
300.000433345362
300.000435710341
300.000441670517
300.000457041314
300.000496494431
300.000592841325
300.000833194611
300.000267492321
300.000191766642
300.000160514305
300.000147246758
300.000141929626
300.000139847221
300.000139028761
300.000138699688
300.000138564621
300.000138509049
300.000138486621
300.000138477959
300.000138474864
300.000138473923
300.00013847376
300.000138473811
300.000138473904
300.000138474
300.000138474083
300.000138474145
300.000138474189
300.000138474219
300.000138474241
300.000138474266
300.000138474288
300.000138474302
300.000138474304
300.000138474301
300.00013847429
300.000138474265
300.000138474225
300.000138474161
300.000138474113
300.000138474069
300.000138474028
300.000138474028
300.000138474248
300.000138475215
300.000138478269
300.000138486797
300.000138508912
300.00013856356
300.000138694932
300.000139009754
300.000139782234
300.000141752595
300.000146923277
300.00016050213
300.00019463195
300.000282764039
300.000086959858
300.000060713002
300.000050110548
300.000045698242
300.000043957347
300.000043284496
300.000043023226
300.000042919151
300.00004287662
300.000042859113
300.000042852024
300.000042849275
300.00004284829
300.000042847993
300.000042847944
300.000042847962
300.000042847994
300.000042848027
300.000042848055
300.000042848077
300.000042848093
300.000042848104
300.000042848112
300.000042848121
300.000042848128
300.000042848132
300.000042848133
300.000042848132
300.000042848128
300.000042848119
300.000042848106
300.000042848085
300.000042848068
300.000042848051
300.000042848037
300.000042848035
300.000042848105
300.000042848419
300.000042849406
300.00004285215
300.000042859215
300.000042876541
300.000042917931
300.000043016877
300.000043260569
300.00004388868
300.000045563792
300.000050060197
300.00006167601
300.000092598728
300.000027349281
300.000018607766
300.000015137474
300.000013719345
300.000013167867
300.00001295727
300.000012876382
300.000012844435
300.000012831433
300.000012826079
300.000012823903
300.000012823056
300.00001282275
300.000012822657
300.000012822641
300.000012822646
300.000012822655
300.000012822665
300.000012822674
300.00001282268
300.000012822685
300.000012822688
300.000012822691
300.000012822693
300.000012822695
300.000012822696
300.000012822696
300.000012822696
300.000012822695
300.000012822692
300.000012822688
300.000012822682
300.000012822677
300.000012822672
300.000012822667
300.000012822667
300.000012822691
300.000012822791
300.000012823103
300.000012823962
300.000012826156
300.000012831494
300.00001284416
300.000012874335
300.000012948824
300.000013142547
300.000013666967
300.000015104408
300.000018915646
300.000029338844
300.000008341666
300.000005534583
300.000004435597
300.000003993832
300.000003824323
300.000003760295
300.000003735941
300.000003726395
300.000003722524
300.000003720928
300.000003720276
300.00000372002
300.000003719926
300.000003719896
300.000003719889
300.000003719889
300.00000371989
300.000003719892
300.000003719894
300.000003719895
300.000003719896
300.000003719896
300.000003719896
300.000003719897
300.000003719897
300.000003719897
300.000003719897
300.000003719897
300.000003719897
300.000003719896
300.000003719895
300.000003719894
300.000003719893
300.000003719892
300.000003719892
300.000003719893
300.000003719902
300.000003719935
300.000003720032
300.000003720296
300.000003720961
300.000003722564
300.000003726339
300.000003735292
300.000003757415
300.000003815386
300.000003974505
300.000004419448
300.000005628487
300.000009015268
300.000002472967
300.000001601267
300.000001263728
300.000001130022
300.000001079342
300.000001060387
300.000001053238
300.000001050453
300.000001049326
300.000001048859
300.000001048666
300.000001048589
300.000001048559
300.000001048547
300.000001048543
300.000001048541
300.00000104854
300.000001048539
300.000001048538
300.000001048538
300.000001048537
300.000001048536
300.000001048536
300.000001048535
300.000001048535
300.000001048535
300.000001048535
300.000001048535
300.000001048535
300.000001048535
300.000001048535
300.000001048536
300.000001048536
300.000001048537
300.000001048538
300.00000104854
300.000001048544
300.000001048556
300.000001048587
300.000001048668
300.000001048867
300.000001049338
300.000001050438
300.00000105303
300.00000105943
300.000001076303
300.000001123214
300.000001256902
300.000001628644
300.000002692595
300.000000714202
300.000000451767
300.000000351024
300.000000311624
300.000000296852
300.000000291375
300.000000289323
300.000000288526
300.000000288202
300.000000288066
300.000000288008
300.000000287983
300.000000287972
300.000000287966
300.000000287962
300.00000028796
300.000000287958
300.000000287956
300.000000287954
300.000000287953
300.000000287952
300.000000287951
300.00000028795
300.000000287949
300.000000287949
300.000000287949
300.000000287949
300.000000287949
300.000000287949
300.000000287949
300.00000028795
300.000000287951
300.000000287952
300.000000287953
300.000000287955
300.000000287957
300.00000028796
300.000000287965
300.000000287977
300.000000288003
300.000000288063
300.000000288201
300.000000288516
300.000000289251
300.00000029106
300.00000029585
300.00000030932
300.000000348394
300.000000459403
300.000000783377
300.000000201513
300.000000124758
300.000000095501
300.000000084177
300.000000079969
300.00000007842
300.000000077841
300.000000077615
300.000000077521
300.000000077479
300.00000007746
300.000000077449
300.000000077443
300.000000077439
300.000000077436
300.000000077433
300.000000077431
300.000000077429
300.000000077427
300.000000077425
300.000000077424
300.000000077423
300.000000077422
300.000000077421
300.000000077421
300.00000007742
300.00000007742
300.00000007742
300.000000077421
300.000000077421
300.000000077422
300.000000077423
300.000000077424
300.000000077425
300.000000077427
300.000000077429
300.000000077432
300.000000077436
300.000000077442
300.000000077452
300.000000077471
300.000000077513
300.000000077604
300.000000077811
300.000000078313
300.000000079644
300.000000083422
300.000000094554
300.000000126794
300.000000222614
300.000000055862
300.000000034031
300.000000025767
300.000000022587
300.000000021411
300.000000020979
300.000000020816
300.00000002075
300.000000020721
300.000000020706
300.000000020697
300.000000020691
300.000000020686
300.000000020683
300.000000020679
300.000000020677
300.000000020674
300.000000020672
300.00000002067
300.000000020668
300.000000020667
300.000000020666
300.000000020665
300.000000020664
300.000000020663
300.000000020663
300.000000020663
300.000000020663
300.000000020663
300.000000020664
300.000000020665
300.000000020666
300.000000020667
300.000000020668
300.00000002067
300.000000020673
300.000000020675
300.000000020678
300.000000020682
300.000000020688
300.000000020696
300.000000020711
300.000000020739
300.000000020799
300.000000020939
300.000000021304
300.000000022344
300.000000025442
300.000000034546
300.000000062107
300.000000015466
300.000000009438
300.000000007182
300.000000006309
300.000000005983
300.000000005862
300.000000005814
300.000000005793
300.000000005781
300.000000005773
300.000000005767
300.000000005763
300.000000005758
300.000000005755
300.000000005751
300.000000005749
300.000000005746
300.000000005744
300.000000005742
300.00000000574
300.000000005739
300.000000005738
300.000000005737
300.000000005736
300.000000005735
300.000000005735
300.000000005735
300.000000005735
300.000000005735
300.000000005736
300.000000005737
300.000000005738
300.000000005739
300.000000005741
300.000000005742
300.000000005745
300.000000005747
300.00000000575
300.000000005754
300.000000005758
300.000000005763
300.000000005771
300.000000005782
300.000000005801
300.000000005842
300.000000005944
300.00000000623
300.000000007074
300.000000009559
300.00000001726
300.000000004512
300.000000002916
300.000000002338
300.000000002103
300.000000002011
300.000000001975
300.000000001958
300.000000001949
300.000000001942
300.000000001936
300.000000001931
300.000000001926
300.000000001922
300.000000001919
300.000000001915
300.000000001912
300.00000000191
300.000000001908
300.000000001906
300.000000001904
300.000000001903
300.000000001901
300.0000000019
300.0000000019
300.000000001899
300.000000001899
300.000000001899
300.000000001899
300.000000001899
300.0000000019
300.0000000019
300.000000001901
300.000000001903
300.000000001904
300.000000001906
300.000000001908
300.000000001911
300.000000001914
300.000000001917
300.000000001921
300.000000001926
300.000000001931
300.000000001938
300.000000001946
300.000000001961
300.000000001992
300.000000002075
300.000000002301
300.000000002938
300.000000005009
300.000000001603
300.000000001221
300.000000001102
300.000000001039
300.00000000101
300.000000000997
300.000000000988
300.000000000982
300.000000000976
300.000000000971
300.000000000966
300.000000000962
300.000000000958
300.000000000954
300.000000000951
300.000000000948
300.000000000946
300.000000000943
300.000000000941
300.00000000094
300.000000000938
300.000000000937
300.000000000936
300.000000000935
300.000000000935
300.000000000934
300.000000000934
300.000000000934
300.000000000935
300.000000000935
300.000000000936
300.000000000937
300.000000000938
300.00000000094
300.000000000942
300.000000000944
300.000000000947
300.00000000095
300.000000000953
300.000000000957
300.000000000961
300.000000000966
300.000000000971
300.000000000977
300.000000000985
300.000000000998
300.000000001026
300.000000001088
300.00000000122
300.000000001733
300.000000000846
300.000000000789
300.000000000792
300.000000000776
300.000000000763
300.000000000756
300.00000000075
300.000000000744
300.000000000739
300.000000000734
300.000000000729
300.000000000724
300.00000000072
300.000000000717
300.000000000714
300.000000000711
300.000000000708
300.000000000706
300.000000000704
300.000000000702
300.000000000701
300.0000000007
300.000000000699
300.000000000698
300.000000000697
300.000000000697
300.000000000697
300.000000000697
300.000000000697
300.000000000698
300.000000000699
300.0000000007
300.000000000701
300.000000000703
300.000000000704
300.000000000707
300.000000000709
300.000000000712
300.000000000716
300.000000000719
300.000000000724
300.000000000728
300.000000000733
300.000000000738
300.000000000744
300.000000000752
300.000000000767
300.000000000785
300.000000000783
300.000000000874
300.000000000653
300.000000000681
300.000000000716
300.000000000712
300.000000000703
300.000000000697
300.000000000692
300.000000000686
300.000000000681
300.000000000676
300.000000000671
300.000000000667
300.000000000663
300.000000000659
300.000000000656
300.000000000653
300.000000000651
300.000000000649
300.000000000647
300.000000000645
300.000000000643
300.000000000642
300.000000000641
300.000000000641
300.00000000064
300.00000000064
300.00000000064
300.00000000064
300.00000000064
300.000000000641
300.000000000641
300.000000000642
300.000000000644
300.000000000645
300.000000000647
300.000000000649
300.000000000652
300.000000000655
300.000000000658
300.000000000662
300.000000000666
300.000000000671
300.000000000676
300.000000000681
300.000000000686
300.000000000693
300.000000000705
300.000000000711
300.000000000675
300.000000000653
300.000000000605
300.000000000655
300.000000000698
300.000000000697
300.000000000689
300.000000000684
300.000000000678
300.000000000673
300.000000000667
300.000000000662
300.000000000658
300.000000000653
300.000000000649
300.000000000646
300.000000000643
300.00000000064
300.000000000637
300.000000000635
300.000000000633
300.000000000631
300.00000000063
300.000000000629
300.000000000628
300.000000000627
300.000000000626
300.000000000626
300.000000000626
300.000000000626
300.000000000626
300.000000000627
300.000000000628
300.000000000629
300.00000000063
300.000000000632
300.000000000634
300.000000000636
300.000000000638
300.000000000641
300.000000000645
300.000000000649
300.000000000653
300.000000000657
300.000000000662
300.000000000667
300.000000000672
300.000000000679
300.00000000069
300.000000000694
300.000000000649
300.000000000598
300.000000000594
300.00000000065
300.000000000694
300.000000000694
300.000000000686
300.00000000068
300.000000000675
300.000000000669
300.000000000664
300.000000000659
300.000000000654
300.00000000065
300.000000000646
300.000000000642
300.000000000639
300.000000000636
300.000000000634
300.000000000632
300.00000000063
300.000000000628
300.000000000627
300.000000000625
300.000000000624
300.000000000624
300.000000000623
300.000000000623
300.000000000623
300.000000000623
300.000000000623
300.000000000624
300.000000000624
300.000000000625
300.000000000627
300.000000000628
300.00000000063
300.000000000632
300.000000000635
300.000000000638
300.000000000641
300.000000000645
300.000000000649
300.000000000654
300.000000000659
300.000000000664
300.000000000669
300.000000000676
300.000000000687
300.000000000691
300.000000000643
300.000000000586
300.000000000592
300.000000000649
300.000000000694
300.000000000693
300.000000000685
300.000000000679
300.000000000674
300.000000000668
300.000000000663
300.000000000658
300.000000000653
300.000000000649
300.000000000645
300.000000000641
300.000000000638
300.000000000635
300.000000000633
300.00000000063
300.000000000629
300.000000000627
300.000000000625
300.000000000624
300.000000000623
300.000000000623
300.000000000622
300.000000000622
300.000000000622
300.000000000622
300.000000000622
300.000000000623
300.000000000623
300.000000000624
300.000000000626
300.000000000627
300.000000000629
300.000000000631
300.000000000634
300.000000000637
300.00000000064
300.000000000644
300.000000000648
300.000000000653
300.000000000658
300.000000000663
300.000000000669
300.000000000676
300.000000000687
300.000000000691
300.000000000643
300.000000000584
300.000000000593
300.000000000651
300.000000000695
300.000000000693
300.000000000685
300.000000000679
300.000000000673
300.000000000668
300.000000000662
300.000000000657
300.000000000652
300.000000000648
300.000000000644
300.00000000064
300.000000000637
300.000000000634
300.000000000632
300.00000000063
300.000000000628
300.000000000626
300.000000000625
300.000000000624
300.000000000623
300.000000000622
300.000000000622
300.000000000621
300.000000000621
300.000000000621
300.000000000622
300.000000000622
300.000000000623
300.000000000624
300.000000000625
300.000000000627
300.000000000629
300.000000000631
300.000000000633
300.000000000636
300.00000000064
300.000000000643
300.000000000648
300.000000000652
300.000000000657
300.000000000663
300.000000000669
300.000000000676
300.000000000687
300.000000000692
300.000000000645
300.000000000585
300.000000000595
300.000000000653
300.000000000696
300.000000000694
300.000000000686
300.000000000679
300.000000000673
300.000000000667
300.000000000661
300.000000000656
300.000000000651
300.000000000647
300.000000000643
300.000000000639
300.000000000636
300.000000000633
300.000000000631
300.000000000629
300.000000000627
300.000000000626
300.000000000624
300.000000000623
300.000000000622
300.000000000621
300.000000000621
300.000000000621
300.000000000621
300.000000000621
300.000000000621
300.000000000622
300.000000000622
300.000000000623
300.000000000625
300.000000000626
300.000000000628
300.00000000063
300.000000000633
300.000000000636
300.000000000639
300.000000000643
300.000000000647
300.000000000652
300.000000000657
300.000000000662
300.000000000669
300.000000000677
300.000000000688
300.000000000694
300.000000000647
300.000000000587
300.000000000597
300.000000000655
300.000000000698
300.000000000695
300.000000000686
300.000000000679
300.000000000672
300.000000000666
300.00000000066
300.000000000655
300.00000000065
300.000000000646
300.000000000642
300.000000000638
300.000000000635
300.000000000632
300.00000000063
300.000000000628
300.000000000626
300.000000000625
300.000000000623
300.000000000622
300.000000000621
300.000000000621
300.00000000062
300.00000000062
300.00000000062
300.00000000062
300.00000000062
300.000000000621
300.000000000622
300.000000000623
300.000000000624
300.000000000625
300.000000000627
300.000000000629
300.000000000632
300.000000000635
300.000000000638
300.000000000642
300.000000000646
300.000000000651
300.000000000656
300.000000000662
300.000000000669
300.000000000677
300.000000000689
300.000000000695
300.00000000065
300.000000000589
300.0000000006
300.000000000658
300.0000000007
300.000000000696
300.000000000686
300.000000000678
300.000000000671
300.000000000665
300.000000000659
300.000000000653
300.000000000649
300.000000000644
300.00000000064
300.000000000637
300.000000000634
300.000000000631
300.000000000629
300.000000000627
300.000000000625
300.000000000624
300.000000000622
300.000000000621
300.000000000621
300.00000000062
300.00000000062
300.000000000619
300.000000000619
300.000000000619
300.00000000062
300.00000000062
300.000000000621
300.000000000622
300.000000000623
300.000000000624
300.000000000626
300.000000000628
300.000000000631
300.000000000634
300.000000000637
300.000000000641
300.000000000645
300.00000000065
300.000000000655
300.000000000662
300.000000000669
300.000000000677
300.000000000691
300.000000000698
300.000000000653
300.000000000593
300.000000000604
300.000000000662
300.000000000702
300.000000000697
300.000000000686
300.000000000678
300.00000000067
300.000000000663
300.000000000657
300.000000000652
300.000000000647
300.000000000643
300.000000000639
300.000000000636
300.000000000633
300.00000000063
300.000000000628
300.000000000626
300.000000000624
300.000000000623
300.000000000621
300.00000000062
300.00000000062
300.000000000619
300.000000000619
300.000000000618
300.000000000618
300.000000000618
300.000000000619
300.000000000619
300.00000000062
300.000000000621
300.000000000622
300.000000000623
300.000000000625
300.000000000627
300.00000000063
300.000000000632
300.000000000636
300.00000000064
300.000000000644
300.000000000649
300.000000000655
300.000000000661
300.000000000668
300.000000000678
300.000000000692
300.0000000007
300.000000000657
300.000000000597
300.000000000608
300.000000000666
300.000000000705
300.000000000698
300.000000000686
300.000000000677
300.000000000669
300.000000000662
300.000000000656
300.00000000065
300.000000000645
300.000000000641
300.000000000637
300.000000000634
300.000000000631
300.000000000629
300.000000000626
300.000000000624
300.000000000623
300.000000000621
300.00000000062
300.000000000619
300.000000000619
300.000000000618
300.000000000618
300.000000000617
300.000000000617
300.000000000617
300.000000000618
300.000000000618
300.000000000619
300.00000000062
300.000000000621
300.000000000622
300.000000000624
300.000000000626