/*--------------------------------*- C++ -*----------------------------------*\
  =========                 |
  \\      /  F ield         | OpenFOAM: The Open Source CFD Toolbox
   \\    /   O peration     | Website:  https://openfoam.org
    \\  /    A nd           | Version:  10
     \\/     M anipulation  |
\*---------------------------------------------------------------------------*/
FoamFile
{
    format      ascii;
    class       volVectorField;
    location    "4.8";
    object      U;
}
// * * * * * * * * * * * * * * * * * * * * * * * * * * * * * * * * * * * * * //

dimensions      [0 1 -1 0 0 0 0];

internalField   nonuniform List<vector> 
2500
(
(-1.60388932385821e-06 -4.90748136421128e-06 9.27508553168505e-25)
(-3.76874556273451e-06 -6.33082489139288e-06 6.99375175751276e-24)
(-3.21215750694099e-06 -6.65503764565085e-06 1.19245103240325e-24)
(-2.34595974424201e-06 -6.73605010946548e-06 6.88719629085187e-25)
(-1.49045924240271e-06 -6.70168297996825e-06 1.61794329643265e-24)
(-9.41760736201637e-07 -6.65565439981395e-06 1.7375654945944e-26)
(-5.90660647529548e-07 -6.61795606654656e-06 1.84467386160751e-25)
(-3.74840670816301e-07 -6.5929255954334e-06 1.76894659954238e-25)
(-2.40236798720122e-07 -6.57816089303667e-06 1.52961459341874e-25)
(-1.52144620174498e-07 -6.56993660430356e-06 7.67899014209817e-24)
(-9.22136239815712e-08 -6.56566058937698e-06 2.80177879819566e-24)
(-4.92467764243493e-08 -6.56349185466675e-06 8.75894577838135e-24)
(-1.70329182903232e-08 -6.5623875513779e-06 7.55100151094019e-24)
(7.97572664550818e-09 -6.56180886242998e-06 2.28714335214157e-24)
(2.79339805954383e-08 -6.5614948680476e-06 8.89898950085299e-24)
(4.41478853715143e-08 -6.56131216369012e-06 1.91036282321136e-24)
(5.74661965831667e-08 -6.56120713072461e-06 8.24931316376222e-24)
(6.84662822312449e-08 -6.56114645683525e-06 8.30753873603085e-24)
(7.75739097248894e-08 -6.56111825470403e-06 2.05802470175949e-24)
(8.51082821606921e-08 -6.56110801783918e-06 7.11059254343434e-24)
(9.13156577639241e-08 -6.56111817934935e-06 1.04898965534632e-24)
(9.64072127817189e-08 -6.56113894009023e-06 2.10913024367096e-25)
(1.00563607600392e-07 -6.56116554538845e-06 7.30428661047576e-24)
(1.03944704930938e-07 -6.56120025715983e-06 9.34437221001212e-25)
(1.06693743245662e-07 -6.56123868192181e-06 3.35061543855062e-25)
(1.08950201977996e-07 -6.56127854336549e-06 8.24854592755827e-24)
(1.10859990443884e-07 -6.56132041314896e-06 5.24944570005446e-25)
(1.12555879483454e-07 -6.56137159198745e-06 1.07029183857251e-24)
(1.14192827341896e-07 -6.56141756779404e-06 6.49569630123997e-24)
(1.15929013678295e-07 -6.56147621313687e-06 -1.31500133885556e-25)
(1.17942654412706e-07 -6.56153432115883e-06 3.49563809400391e-25)
(1.20456335800671e-07 -6.56160997989355e-06 -1.07093976187538e-24)
(1.23719592836847e-07 -6.56169139563217e-06 7.11917633397835e-25)
(1.28051330817827e-07 -6.5617973506534e-06 8.03234508561144e-25)
(1.33893443643938e-07 -6.56194201438366e-06 1.27549563568712e-26)
(1.41850900723419e-07 -6.56215900061905e-06 6.49589791119082e-24)
(1.52798537775764e-07 -6.56251182721889e-06 -7.96196628690807e-24)
(1.68077038715204e-07 -6.56313217191807e-06 -9.11655369309713e-25)
(1.89866639609113e-07 -6.56429474638946e-06 -1.48165760101502e-26)
(2.21762796585656e-07 -6.56654392735448e-06 -4.37869836953757e-24)
(2.69985836478696e-07 -6.57089774209405e-06 -8.75748333518435e-24)
(3.45836544240884e-07 -6.57914924621025e-06 -8.48078694656426e-24)
(4.67481881334765e-07 -6.59377194406047e-06 -4.48204080313522e-24)
(6.7007556913823e-07 -6.61846501397661e-06 -8.88204995042986e-24)
(1.00770110044885e-06 -6.65572871371951e-06 -8.85250855792177e-24)
(1.54577032369462e-06 -6.70211209599644e-06 -5.21062577213292e-24)
(2.39817794214443e-06 -6.73848906097996e-06 -9.43357961963142e-24)
(3.28019925568328e-06 -6.6582376838224e-06 -8.66464349641674e-24)
(3.84275165995207e-06 -6.32109438997498e-06 -4.39059369029918e-24)
(1.63053738841717e-06 -4.89107555994322e-06 -6.77417421348115e-24)
(-1.49482555250512e-06 -6.38403171196798e-06 8.80474078450723e-25)
(-5.97155347528117e-06 -9.1690417075181e-06 1.51864921942583e-24)
(-5.4263067162322e-06 -1.05255155090971e-05 1.41949747522421e-24)
(-4.19289314870594e-06 -1.07465225776645e-05 1.22571048843538e-24)
(-2.83048074113106e-06 -1.05286405154735e-05 1.90072722022674e-24)
(-1.90352583053587e-06 -1.02618470432949e-05 -1.99933326082235e-24)
(-1.28598993727789e-06 -1.00661896571403e-05 1.55295905326602e-25)
(-8.87614633798004e-07 -9.94132567366958e-06 3.26877014304545e-26)
(-6.26275638520903e-07 -9.86767660326327e-06 -2.7035921548969e-24)
(-4.45690432549173e-07 -9.82532042880599e-06 1.60115757666973e-24)
(-3.15675640676944e-07 -9.80109810624747e-06 5.79138196222374e-24)
(-2.17671167250295e-07 -9.78691143745308e-06 6.40794055623188e-24)
(-1.41031553151005e-07 -9.77820036383938e-06 2.15485985024059e-24)
(-7.94785995915638e-08 -9.77252588095936e-06 3.68669386785143e-24)
(-2.90005912685975e-08 -9.76859626997538e-06 2.22017945657671e-24)
(1.2986475090693e-08 -9.76573428762191e-06 2.02043134592807e-24)
(4.82564683913148e-08 -9.76356934467946e-06 5.49927227673663e-24)
(7.8084878459122e-08 -9.76189600660058e-06 3.14646256883963e-24)
(1.03433610059167e-07 -9.76058095452038e-06 1.97678511109556e-24)
(1.25053938208858e-07 -9.75954317568961e-06 1.63705455136512e-24)
(1.4355411969445e-07 -9.75873813157395e-06 7.19929501820486e-25)
(1.59459470445921e-07 -9.75811470150473e-06 -2.23193124321293e-24)
(1.73216713088664e-07 -9.75766322201185e-06 4.12307961815335e-24)
(1.85234850081266e-07 -9.75733791439228e-06 8.95525812815957e-25)
(1.95892054170436e-07 -9.75715399671829e-06 -1.84756563355607e-24)
(2.05548346861367e-07 -9.75709242494501e-06 4.41431272406948e-24)
(2.14567401821259e-07 -9.75715287433346e-06 -1.24074153000944e-24)
(2.23314216519535e-07 -9.75734630097665e-06 3.0145857384323e-24)
(2.32173574881841e-07 -9.75766358891087e-06 3.17542955735964e-24)
(2.41555689202757e-07 -9.75813849992502e-06 -2.59795490490263e-24)
(2.5191613062872e-07 -9.75877763728986e-06 1.8073720261056e-24)
(2.6379534925012e-07 -9.75963047185252e-06 -3.89246642990287e-24)
(2.77815602259529e-07 -9.76073022508401e-06 3.34494727002698e-24)
(2.94728007038777e-07 -9.76217081280796e-06 3.46341595707412e-24)
(3.15536212689994e-07 -9.76408360581029e-06 -2.31867999122484e-24)
(3.41557159455316e-07 -9.76669206885974e-06 2.90242320633999e-24)
(3.7461585026542e-07 -9.77036736775879e-06 -4.23292578875298e-24)
(4.17354256682323e-07 -9.77580737080453e-06 -6.92434305933177e-25)
(4.73832778883917e-07 -9.78432279240223e-06 1.53437989547068e-24)
(5.5043361286407e-07 -9.79839614318053e-06 -1.10647908487396e-23)
(6.57840250403303e-07 -9.82255978971343e-06 -7.64629781812243e-24)
(8.14869076712019e-07 -9.86485006659873e-06 -6.99344516366953e-24)
(1.05148201837916e-06 -9.93830812802931e-06 -1.07592005544004e-23)
(1.42484695680451e-06 -1.00629591461855e-05 -7.23866703818403e-24)
(2.01707142139335e-06 -1.02591061084611e-05 -7.52214528698393e-24)
(2.92393822135076e-06 -1.05301776170874e-05 -1.25134072125617e-23)
(4.28039834537204e-06 -1.0759460068168e-05 -7.71648174206754e-24)
(5.54596873166463e-06 -1.05415179743834e-05 -7.28667429369175e-24)
(6.11476553077459e-06 -9.13975943599216e-06 -1.06312497014126e-23)
(1.55228507220002e-06 -6.31156379670235e-06 -4.65425641318882e-24)
(-1.61007276924483e-07 -1.040198982792e-07 3.01065260078901e-25)
(-4.80392419422978e-06 -2.15700053929556e-06 -6.47968687202632e-24)
(-4.7181653950675e-06 -4.44779680522815e-06 8.14565003514396e-25)
(-3.98212477301266e-06 -4.85730858591896e-06 4.48626431817593e-25)
(-2.92160078807086e-06 -4.53573396562476e-06 -4.12342456215169e-24)
(-2.13028635323532e-06 -4.11103361945937e-06 -8.01762517570852e-24)
(-1.55767059603413e-06 -3.79836634825225e-06 -2.42710670454224e-25)
(-1.15711307939468e-06 -3.59812344426065e-06 -3.52709298431719e-25)
(-8.74225318490863e-07 -3.47784873691337e-06 -6.65527636072203e-24)
(-6.65285735791839e-07 -3.40599391772894e-06 -6.12909145803538e-24)
(-5.06298574461288e-07 -3.36229398205919e-06 1.01392589063873e-23)
(-3.81279526004401e-07 -3.33465928509168e-06 3.64995522765902e-24)
(-2.80408775036389e-07 -3.31630898560018e-06 -5.64736479472243e-24)
(-1.97475543965246e-07 -3.30349808400646e-06 5.7118745440177e-24)
(-1.28228110929293e-07 -3.29412806827213e-06 -5.82567572464823e-24)
(-6.97501295275031e-08 -3.28702869352994e-06 1.16924791655676e-24)
(-1.99266121156153e-08 -3.28149657513402e-06 2.42067255322966e-24)
(2.28238333778913e-08 -3.27711531700378e-06 -3.05114703709439e-24)
(5.97261298228619e-08 -3.27360985411609e-06 6.23121454861962e-25)
(9.17583744757435e-08 -3.27079498259823e-06 -6.30042433806894e-24)
(1.19737434465577e-07 -3.26855919954592e-06 -3.33622484922623e-25)
(1.44356906436454e-07 -3.26679942025765e-06 -7.66019873717975e-24)
(1.66237499056965e-07 -3.26547712007088e-06 1.35585415296599e-24)
(1.85937570373518e-07 -3.26452427023111e-06 3.62953563089552e-25)
(2.03969952055003e-07 -3.26392522062951e-06 -4.74641755276699e-24)
(2.20845235994165e-07 -3.26367365890336e-06 1.05829544480567e-24)
(2.37062327209998e-07 -3.26376135270678e-06 -6.14283913732264e-24)
(2.53125989075671e-07 -3.26418680309146e-06 7.4838496748726e-24)
(2.69565194845595e-07 -3.2649899621742e-06 1.08062640751321e-24)
(2.86946099956487e-07 -3.26618628083539e-06 -7.69375699267818e-24)
(3.05894817884868e-07 -3.26784787150365e-06 5.95023781852527e-24)
(3.27132885948636e-07 -3.27004943545106e-06 -6.84095581166902e-24)
(3.51489805778989e-07 -3.2729090441584e-06 8.51738804563641e-24)
(3.79963977136661e-07 -3.27660342718022e-06 8.60946850628369e-24)
(4.13824301480214e-07 -3.28142890058595e-06 -7.41245153103208e-24)
(4.54696171387919e-07 -3.28781049469645e-06 2.00484304942284e-25)
(5.04747888074379e-07 -3.29644464512064e-06 -1.36311119231182e-24)
(5.66950971022014e-07 -3.30853495714362e-06 9.41989758795873e-26)
(6.45600240251403e-07 -3.32619539998393e-06 4.95742443811687e-24)
(7.47002914404171e-07 -3.35324309508334e-06 -1.11010971717097e-23)
(8.8100263663564e-07 -3.3964993889769e-06 -5.00152651880232e-24)
(1.06387543044117e-06 -3.46810200925757e-06 -4.22721903528213e-24)
(1.3194219906886e-06 -3.58842539075434e-06 -1.26870594201829e-23)
(1.69247987929133e-06 -3.78943551266895e-06 -4.35376555960503e-24)
(2.2373522218448e-06 -4.10496735971305e-06 -4.72511724511628e-24)
(3.00648539544938e-06 -4.53946276445037e-06 -1.51602737774623e-23)
(4.0592856568021e-06 -4.88325060587769e-06 -4.67572219997072e-24)
(4.82771649157212e-06 -4.48301834716236e-06 -4.64490179649222e-24)
(4.96142413927666e-06 -2.12585916069653e-06 -1.38368599064186e-23)
(2.41662051184957e-07 1.35209574845373e-08 -2.63015944963198e-24)
(2.62371320142578e-07 4.92978388400654e-06 6.24595269580362e-25)
(-2.6520403549843e-06 3.84537709568875e-06 -4.01375184416006e-24)
(-3.00269218351139e-06 5.3269943593798e-07 1.13056555250592e-24)
(-2.92860155120288e-06 -3.25011853935448e-07 4.69726758802465e-25)
(-2.4294726791517e-06 -1.53029485323282e-07 -2.06820165549302e-24)
(-1.9610600451299e-06 2.57415483179455e-07 -2.32793875479643e-24)
(-1.55938141151438e-06 5.91909158078033e-07 3.01127135491443e-25)
(-1.23761717584885e-06 8.20140400947868e-07 2.91928947393804e-25)
(-9.86415752855869e-07 9.65605579734831e-07 -2.5823130701879e-24)
(-7.86127031305429e-07 1.05803721965737e-06 -3.56780614458881e-24)
(-6.2536507396816e-07 1.11802641669684e-06 4.49412807528488e-24)
(-4.9427167976851e-07 1.15835353339582e-06 3.3173538901e-25)
(-3.85863731794805e-07 1.18655532809232e-06 -3.55536691979028e-24)
(-2.95179020115538e-07 1.20705308753125e-06 2.48751730452273e-24)
(-2.18476534448272e-07 1.22246699735987e-06 -3.55949684198641e-24)
(-1.53007739224091e-07 1.23439130792406e-06 1.17238735476177e-24)
(-9.66799916507919e-08 1.24380293876532e-06 -3.84048522762588e-25)
(-4.78732928921782e-08 1.25133656589065e-06 -2.58290874382216e-24)
(-5.29747199217225e-09 1.25740906850009e-06 1.18084599679084e-24)
(3.20937548798512e-08 1.26230542303605e-06 -3.29154722210969e-24)
(6.51890564140751e-08 1.26622320748582e-06 5.58877467501214e-25)
(9.47503789523114e-08 1.26930432850136e-06 -2.12983177379503e-24)
(1.21454581432201e-07 1.2716524297186e-06 -4.6476986328201e-26)
(1.45933654736621e-07 1.27333102798878e-06 6.63077120952952e-25)
(1.68757815563021e-07 1.27438605742463e-06 -1.82341656831044e-24)
(1.90487669815572e-07 1.27483573665259e-06 -8.21176715840871e-25)
(2.11689192776046e-07 1.27468867789528e-06 -1.44402768369932e-24)
(2.32917374033346e-07 1.27392184390028e-06 2.32120650564005e-24)
(2.54763138730768e-07 1.27251243990112e-06 -3.16174393292728e-25)
(2.77859910434615e-07 1.27038777075314e-06 -2.62597015960264e-24)
(3.02894956610394e-07 1.26745873281522e-06 1.4872495499093e-24)
(3.30657005675884e-07 1.26358861139907e-06 -3.82882909539099e-24)
(3.62053772705932e-07 1.25858791063425e-06 2.82883314535529e-24)
(3.98155597899726e-07 1.25217684331879e-06 2.9781809898331e-24)
(4.40290247738495e-07 1.24391334192587e-06 -2.56273823032486e-24)
(4.90118596522206e-07 1.23317161449218e-06 -1.79669815566574e-24)
(5.49772832508794e-07 1.21895193565534e-06 7.46511632244664e-25)
(6.22040918499813e-07 1.19966396090606e-06 -2.04892554175932e-26)
(7.10685918785835e-07 1.17265932047589e-06 2.42277806442541e-24)
(8.20726141441779e-07 1.13346660129477e-06 -4.79646966700622e-24)
(9.59108414310249e-07 1.07447313671055e-06 -4.38453764578386e-25)
(1.13591677624078e-06 9.82792183901454e-07 4.33270981699729e-25)
(1.36227524236109e-06 8.37558967389521e-07 -4.10247358627695e-24)
(1.65888393517259e-06 6.08247218997782e-07 3.28738149534948e-25)
(2.03473734362172e-06 2.68977076666109e-07 2.76379830769873e-25)
(2.48172638770199e-06 -1.5700314456647e-07 -5.66091804515259e-24)
(2.97093217290078e-06 -3.63514131043601e-07 3.42757059995752e-25)
(3.06721111867596e-06 4.71966246066009e-07 2.75679374132009e-25)
(2.77137248711342e-06 3.86556064219075e-06 -4.85838200442274e-24)
(-1.89418183446248e-07 5.04885752444962e-06 4.42840008637053e-25)
(1.81892412474633e-07 7.52490727147336e-06 1.18180471524586e-24)
(-9.16139652654728e-07 6.86105227228957e-06 1.66608755385436e-24)
(-1.53800644397351e-06 2.86659156713831e-06 1.66984492218588e-24)
(-1.90989958943395e-06 1.55077067599004e-06 5.78620776515991e-25)
(-1.86613610338577e-06 1.48759233514777e-06 6.54411676423868e-26)
(-1.67872080469991e-06 1.8054263948517e-06 4.72436405720484e-25)
(-1.4428811809833e-06 2.11704100168971e-06 6.52920159803422e-25)
(-1.21014351325503e-06 2.35053213739074e-06 7.3213843633515e-25)
(-1.00579985763625e-06 2.51038795227369e-06 6.34184540732574e-25)
(-8.29664370289712e-07 2.61823631390615e-06 8.14143254346913e-25)
(-6.81178862723422e-07 2.69198617777814e-06 2.02339853893203e-24)
(-5.56168375585727e-07 2.74373457222904e-06 1.78064064577722e-24)
(-4.50574922712628e-07 2.78115638900312e-06 8.10393931792126e-25)
(-3.60940287530735e-07 2.80903358236825e-06 1.34791941978257e-24)
(-2.8429784907822e-07 2.83037616471629e-06 7.32311142206805e-25)
(-2.18307673797676e-07 2.84707734040549e-06 1.59997752533846e-24)
(-1.61092517365528e-07 2.86037266739415e-06 1.78711088755846e-24)
(-1.11137206246751e-07 2.87106694625366e-06 1.64461526989929e-24)
(-6.72143976066515e-08 2.87972213315731e-06 1.9323026955858e-24)
(-2.83011165614798e-08 2.88670854837691e-06 1.25146022020835e-24)
(6.4789069193985e-09 2.8923040961116e-06 1.41919085479767e-24)
(3.78822637859167e-08 2.89669819513816e-06 7.38677380148217e-25)
(6.65898732377016e-08 2.90003424590989e-06 1.27214653642069e-24)
(9.32289544544902e-08 2.90240683316536e-06 1.12446223747129e-24)
(1.18383773378866e-07 2.90385935704317e-06 7.95511206769848e-25)
(1.42623740588472e-07 2.90444019636247e-06 1.369815288311e-24)
(1.66505614262382e-07 2.90414666278363e-06 5.81624296672988e-25)
(1.90605000023386e-07 2.90295200752306e-06 3.15936267818171e-25)
(2.15509911805488e-07 2.90081742040382e-06 4.84686154032129e-25)
(2.4185102623007e-07 2.89765001470657e-06 -1.21408288572287e-25)
(2.70328734615967e-07 2.89331338425389e-06 -1.67183812686806e-25)
(3.01713413288977e-07 2.88763662429576e-06 -1.34587471595657e-24)
(3.36901100887928e-07 2.88035093161101e-06 2.66334707565268e-26)
(3.76939743224823e-07 2.87107022465098e-06 2.22880535494255e-25)
(4.23089200111444e-07 2.85923993113544e-06 -1.82536462500186e-25)
(4.76881494960307e-07 2.84403660010461e-06 2.13467859920918e-25)
(5.40226359445023e-07 2.82422366107877e-06 -8.23617322049502e-26)
(6.154890688642e-07 2.79791033605956e-06 -4.18156229108105e-25)
(7.05630149521601e-07 2.7620738130342e-06 3.80869181479916e-25)
(8.14126305511298e-07 2.71187963435175e-06 -8.27646948525191e-25)
(9.44931588995828e-07 2.63959576761614e-06 -8.57233323267005e-25)
(1.10235452433006e-06 2.53301586893791e-06 -4.75653972322937e-25)
(1.28652510728233e-06 2.37392760231785e-06 -3.80600296955991e-25)
(1.49835156278045e-06 2.13970381869822e-06 -4.87348175249144e-25)
(1.71165887019763e-06 1.82260233630687e-06 -4.73480941744644e-25)
(1.87904402038435e-06 1.48528297521815e-06 -9.54758412835461e-25)
(1.9106463696892e-06 1.50407630260134e-06 -4.94528409565257e-25)
(1.55032924998338e-06 2.78479877460606e-06 -4.70574936552442e-25)
(9.7325503265401e-07 6.87066781860764e-06 -6.25710443139652e-25)
(-1.39999135174516e-07 7.63510560189374e-06 2.7934462603648e-25)
(5.78797407420673e-08 8.1065415037655e-06 1.25621481356281e-24)
(4.61380512740423e-08 7.46131119529288e-06 4.01997667890541e-24)
(-6.80273982462057e-07 3.28129716370006e-06 1.66108730154158e-24)
(-1.22525199196544e-06 1.6883176768458e-06 5.80416812169257e-25)
(-1.43142371070359e-06 1.446775349662e-06 9.53280356264655e-25)
(-1.41571495698426e-06 1.67399803157375e-06 1.75844964560631e-24)
(-1.29646997389153e-06 1.9543124549584e-06 6.92224897132728e-25)
(-1.13524261570824e-06 2.18397712437542e-06 7.57049486459542e-25)
(-9.74665632889209e-07 2.3513068439329e-06 1.84465080813919e-24)
(-8.25471946209894e-07 2.46981794910539e-06 2.30142886472617e-24)
(-6.93925580037254e-07 2.55419502924994e-06 5.06712624738285e-25)
(-5.79888841687841e-07 2.61536042550939e-06 1.8459176387664e-24)
(-4.81631653699357e-07 2.66072216674223e-06 2.45605511688445e-24)
(-3.97041858638277e-07 2.69516628923154e-06 3.86160398127581e-25)
(-3.23954885952201e-07 2.72189460386708e-06 2.34839076493313e-24)
(-2.60501306654784e-07 2.74301019231133e-06 1.51797222633428e-24)
(-2.05090727932357e-07 2.75991915536557e-06 2.18426359174055e-24)
(-1.56391437051647e-07 2.77357741128958e-06 3.08134416132946e-24)
(-1.13287607265354e-07 2.78464535126056e-06 1.92011517319866e-24)
(-7.48361210678257e-08 2.79359200087366e-06 2.76302762925264e-24)
(-4.02086957240084e-08 2.80074285987062e-06 1.53174696161729e-24)
(-8.68761322616432e-09 2.80633978431441e-06 1.89980949421182e-24)
(2.03768899235462e-08 2.81055829582119e-06 1.74433163784733e-24)
(4.75878461400739e-08 2.81352027777707e-06 1.13866180800025e-24)
(7.35134590930732e-08 2.81529239278727e-06 2.10493603835128e-24)
(9.87012544744746e-08 2.81591691103256e-06 1.90867445385302e-24)
(1.23688783161e-07 2.81540273192756e-06 1.45732020023805e-24)
(1.49029188714267e-07 2.8137215103068e-06 -5.95193509843387e-25)
(1.75293523918218e-07 2.81079532781789e-06 9.06172436784007e-25)
(2.0308547696339e-07 2.80653442552511e-06 1.03317616892199e-24)
(2.33073838736727e-07 2.80076149447382e-06 -9.07331828375782e-25)
(2.65990777936265e-07 2.79324651628701e-06 6.15998325734885e-26)
(3.02668262707251e-07 2.78367386143815e-06 -1.24215219710459e-24)
(3.44082299025609e-07 2.77157766882528e-06 -1.12358607110341e-24)
(3.91366877224056e-07 2.756285799539e-06 1.01775544931467e-24)
(4.45863166563153e-07 2.7368370742442e-06 8.65443678774435e-25)
(5.09186190410428e-07 2.71183079216582e-06 -5.82153804008239e-25)
(5.83209450848702e-07 2.67916674691901e-06 -5.62810358019958e-25)
(6.70075959324257e-07 2.63563750866646e-06 -7.59916512836681e-25)
(7.71886792451827e-07 2.5763111144949e-06 1.2488922308594e-24)
(8.90226577377629e-07 2.49373538685759e-06 -7.56513251780564e-25)
(1.02528023795825e-06 2.37691559687986e-06 -6.5146740147147e-25)
(1.17020926552899e-06 2.21085903802152e-06 1.30143451567827e-24)
(1.31467623896092e-06 1.98106931666572e-06 -6.037219074036e-25)
(1.41470990372654e-06 1.69535620906912e-06 -5.99102511574875e-25)
(1.41216509549413e-06 1.44660222289514e-06 1.31123327138434e-24)
(1.19261586523477e-06 1.6372706495734e-06 -6.86558854506507e-25)
(6.52549845073623e-07 3.18587549533197e-06 -6.30582490594387e-25)
(-4.50904594271223e-08 7.46053943356279e-06 1.96016235357069e-24)
(-4.71527229991899e-08 8.20598188791374e-06 -7.72077407984686e-26)
(3.71939001760562e-08 7.58306868098121e-06 9.35332866260815e-25)
(3.9829846268941e-07 6.86599915118663e-06 3.84771573369232e-24)
(-3.13184816081213e-07 2.82401312361173e-06 1.20612584615311e-24)
(-8.48992624433503e-07 1.11136661295395e-06 3.86017317067382e-25)
(-1.1419994119753e-06 7.61179560056257e-07 5.56296141529601e-25)
(-1.20617402017451e-06 9.17525118933718e-07 1.13492647063484e-24)
(-1.15644730202949e-06 1.1681933942826e-06 4.53733438982035e-25)
(-1.04580456344189e-06 1.3898813091654e-06 5.08485706226755e-25)
(-9.20721194554836e-07 1.55990260370181e-06 1.35576862838903e-24)
(-7.96048456430591e-07 1.68514822120126e-06 1.92766386837768e-24)
(-6.81421766504066e-07 1.77727842932049e-06 3.15700241743312e-25)
(-5.79218872973321e-07 1.84585864944711e-06 1.89279955261199e-24)
(-4.89390062425932e-07 1.89780410049841e-06 2.37587693385725e-24)
(-4.10930952512838e-07 1.93788504319696e-06 4.14369234566067e-25)
(-3.42395599205649e-07 1.96935789828902e-06 2.28257169358107e-24)
(-2.82383207625652e-07 1.99443310667269e-06 1.1055112446546e-24)
(-2.29607309312212e-07 2.01462343493017e-06 2.16846974816221e-24)
(-1.8293374657948e-07 2.03098852748513e-06 2.73083663181453e-24)
(-1.41383428285276e-07 2.04427037143637e-06 1.38036423213514e-24)
(-1.0410522797463e-07 2.05500536025076e-06 2.50710181503274e-24)
(-7.03432702129129e-08 2.06357332752758e-06 1.08585764594435e-24)
(-3.94242232976979e-08 2.07025629338868e-06 1.36667720973628e-24)
(-1.07356498914983e-08 2.07526193846756e-06 1.78837219999059e-24)
(1.62883021698676e-08 2.0787259594843e-06 8.07203295502942e-25)
(4.2185090898355e-08 2.08074522946567e-06 1.42547038765012e-24)
(6.74814701155367e-08 2.0813529306718e-06 1.96961501237558e-24)
(9.26852392314148e-08 2.08056800723235e-06 9.75023441612093e-25)
(1.18318791718306e-07 2.07835195275253e-06 -3.06572549653817e-25)
(1.4492889413602e-07 2.07462235184027e-06 1.28765075129607e-24)
(1.73087391289352e-07 2.06925455248413e-06 7.92800953727318e-25)
(2.03412856701221e-07 2.06205053575438e-06 -5.32849216440704e-25)
(2.36587804685983e-07 2.05274838255558e-06 1.11744600038212e-25)
(2.73383601333417e-07 2.04097147202129e-06 -8.72744094489559e-25)
(3.14669372821633e-07 2.02619098051261e-06 -7.73726969535946e-25)
(3.61437669584903e-07 2.00765322997892e-06 7.38296810026319e-25)
(4.14829322076457e-07 1.98430545188039e-06 1.23842018911076e-24)
(4.76142885311015e-07 1.95463791533941e-06 -1.00251242092382e-24)
(5.46776242779386e-07 1.91644697262627e-06 -4.3946282230809e-25)
(6.2814311794795e-07 1.86648720712844e-06 -4.7391381523146e-25)
(7.21220398417674e-07 1.79994123006909e-06 9.99390037921684e-25)
(8.25892455732239e-07 1.70988096976967e-06 -1.13381547045201e-24)
(9.39773118076338e-07 1.58669918349104e-06 -1.11482641754807e-24)
(1.05259312013571e-06 1.41848140545292e-06 9.43218060452471e-25)
(1.14969692379838e-06 1.19740469512805e-06 -1.09161623861845e-24)
(1.18306986792009e-06 9.41803583174445e-07 -8.85420676074869e-25)
(1.10275137217072e-06 7.6270621474845e-07 1.00273503841476e-24)
(7.9662064142249e-07 1.05693846891239e-06 -1.28364909982172e-24)
(2.63482061903394e-07 2.71805824372755e-06 -1.32837759655195e-24)
(-4.31803996338315e-07 6.85041921980966e-06 1.66615534566295e-24)
(-4.52530230186984e-08 7.66651994621179e-06 -8.48909215196391e-25)
(7.8646292780172e-08 6.75175351204179e-06 5.09702015469352e-25)
(4.20069269607563e-07 6.04424640429387e-06 2.07006363142326e-24)
(-2.08873078664599e-07 2.24685950219412e-06 6.59167272907159e-25)
(-6.59262888658948e-07 4.96193940760824e-07 1.82230415247056e-25)
(-9.51413828207047e-07 8.06645361882434e-08 -1.11965819346278e-25)
(-1.04251416783963e-06 1.81179803610644e-07 6.16180757429768e-25)
(-1.03120314071235e-06 4.03305977878649e-07 2.45379306104014e-25)
(-9.55349197188393e-07 6.13349044432151e-07 2.79400644437365e-25)
(-8.57997671539816e-07 7.81698246205903e-07 8.02351397122016e-25)
(-7.54282284609827e-07 9.10031106301782e-07 1.06450674287361e-24)
(-6.55010526046342e-07 1.00719598114735e-06 8.86539472563256e-26)
(-5.64003075614788e-07 1.08127021806148e-06 8.42353117058913e-25)
(-4.8238060908174e-07 1.13846286218296e-06 1.18172913882258e-24)
(-4.10008244239279e-07 1.18326101078756e-06 1.84759597994426e-25)
(-3.4606112984211e-07 1.21883512993161e-06 1.1355319813243e-24)
(-2.89566099676693e-07 1.24740720020321e-06 5.85768390602052e-25)
(-2.39525512401177e-07 1.27054745978055e-06 1.01210967843916e-24)
(-1.95006647571789e-07 1.28936791271723e-06 1.3789322804217e-24)
(-1.55166596596127e-07 1.30466811514131e-06 7.40807364060919e-25)
(-1.19254046578223e-07 1.31703347123626e-06 1.25940140955003e-24)
(-8.65799140270226e-08 1.32689922552224e-06 5.85484690364345e-25)
(-5.65239360983132e-08 1.33457549152042e-06 7.97860084601202e-25)
(-2.85204923652872e-08 1.34028922169327e-06 8.42119194932241e-25)
(-2.03265200118409e-09 1.34419304331273e-06 4.30374249501732e-25)
(2.34455523884952e-08 1.34640216739584e-06 7.97539651434276e-25)
(4.84081500820272e-08 1.34696073198556e-06 9.27278843390163e-25)
(7.33427026782492e-08 1.345876138709e-06 5.54540304954837e-25)
(9.87399842221119e-08 1.34311387129815e-06 -1.94333425229476e-25)
(1.25116140990363e-07 1.33858285443354e-06 5.51914949288927e-25)
(1.53005508874206e-07 1.33213461783768e-06 4.86350537899363e-25)
(1.82992405153033e-07 1.32354777592601e-06 -2.90654073698278e-25)
(2.15701227672129e-07 1.31253570655905e-06 1.44281141973699e-25)
(2.51820512795347e-07 1.29867687086455e-06 -5.06218917569905e-25)
(2.92127842529955e-07 1.28138635790797e-06 -4.71163460372868e-25)
(3.37474485013155e-07 1.25986802392842e-06 4.56601372211194e-25)
(3.88798598520666e-07 1.2330084906072e-06 5.33215865312535e-25)
(4.47101411010836e-07 1.19925579873073e-06 -3.89861506271847e-25)
(5.13349965624681e-07 1.15639700810881e-06 -2.33422091834811e-25)
(5.88330977444814e-07 1.10128030173615e-06 -2.33218113276605e-25)
(6.72144591793748e-07 1.02939171156939e-06 1.01260100045787e-24)
(7.63506450599561e-07 9.34530430295299e-07 -4.05649341704122e-25)
(8.58565482864968e-07 8.0862804657337e-07 -4.09173070925192e-25)
(9.45897444824211e-07 6.42621602400598e-07 9.17120026153315e-25)
(1.01051008824926e-06 4.33952128661603e-07 -4.02765947531444e-25)
(1.00786061865519e-06 2.07395132451696e-07 -3.97593884817828e-25)
(9.02919133076268e-07 8.31491778166371e-08 9.98901294322805e-25)
(5.99042011246597e-07 4.38075178298102e-07 -4.99038551503941e-25)
(1.51681029486027e-07 2.13079388853025e-06 -4.80785636306159e-25)
(-4.67344324216926e-07 6.00888669093222e-06 1.88614385526934e-24)
(-9.37332803429573e-08 6.81192917741735e-06 -2.25711941881113e-25)
(1.17120854151813e-07 6.02901447492286e-06 2.65415881503022e-25)
(3.19631990915511e-07 5.42651219901359e-06 1.51447411672852e-24)
(-2.01400462221018e-07 1.84809304390009e-06 3.43373217940814e-25)
(-5.56499784054742e-07 8.63297589683486e-08 1.20917155602317e-25)
(-8.1504894873904e-07 -3.74563805546482e-07 3.76807203001937e-25)
(-9.09567866502295e-07 -3.20860006425694e-07 6.11895606104383e-25)
(-9.19306902285341e-07 -1.27014255461496e-07 1.49077741319456e-25)
(-8.67928809792969e-07 6.8425330558575e-08 1.61391034223663e-25)
(-7.92360922398359e-07 2.3154812655875e-07 6.4639501870428e-25)
(-7.06372453231584e-07 3.59897365910905e-07 7.27550248879635e-25)
(-6.20725982542269e-07 4.59735848993942e-07 -2.05155261669883e-25)
(-5.40001101418759e-07 5.37590198114954e-07 3.24024228992195e-25)
(-4.66097559661744e-07 5.98807788771373e-07 7.97627313783305e-25)
(-3.99552304833638e-07 6.4747039774634e-07 -1.82852124429183e-25)
(-3.40057117184981e-07 6.86537821032956e-07 7.70673256532275e-25)
(-2.87011383112694e-07 7.18173987241062e-07 2.82810851681949e-25)
(-2.39687498566181e-07 7.43943419732372e-07 4.3894762113933e-25)
(-1.97342015921783e-07 7.64984862998136e-07 9.03014032645653e-25)
(-1.59264368157726e-07 7.8213166589594e-07 3.84440430680189e-25)
(-1.24791675268288e-07 7.9599883218592e-07 8.68780492565615e-25)
(-9.3312554934536e-08 8.07056708843515e-07 3.16095396137284e-25)
(-6.42640869479064e-08 8.15639189755421e-07 5.69265846678434e-25)
(-3.71188264774742e-08 8.21996708147663e-07 3.69748075054029e-25)
(-1.13733906865792e-08 8.26301577085864e-07 2.14638957327887e-25)
(1.34482180101241e-08 8.28666122018127e-07 6.46273166849285e-25)
(3.78095920282974e-08 8.29151899448703e-07 4.24486768919287e-25)
(6.21712782246907e-08 8.2776594590475e-07 4.50628331167275e-25)
(8.69995931783534e-08 8.24464231486146e-07 -3.80995721727011e-25)
(1.12777362630624e-07 8.19153401336535e-07 2.07251832447593e-25)
(1.40004657027988e-07 8.1166728421488e-07 5.01564319074934e-25)
(1.69220213965006e-07 8.01774546405228e-07 -3.94438267839985e-25)
(2.00995589660604e-07 7.89140118162509e-07 3.53721733278772e-25)
(2.35949121483662e-07 7.7333257954333e-07 -5.02737175034254e-25)
(2.74757343433441e-07 7.53729564335959e-07 -5.24866423001969e-25)
(3.18137767798612e-07 7.29511022064866e-07 5.13535617563993e-25)
(3.66841323730015e-07 6.99541812483006e-07 2.2832219541341e-25)
(4.21594978426506e-07 6.62267761958519e-07 -1.35933810124539e-25)
(4.82988680566099e-07 6.15567040843313e-07 -1.19206257370188e-25)
(5.51298224740337e-07 5.56479461059008e-07 -3.35424395002636e-25)
(6.25951417273845e-07 4.80938719323253e-07 6.78405094670107e-25)
(7.04896904474328e-07 3.83612594287693e-07 -1.02698224778433e-25)
(7.83520330929769e-07 2.58035140321995e-07 -1.00547228938123e-25)
(8.50519558665408e-07 9.77536609072534e-08 6.14968529365405e-25)
(8.92283258651366e-07 -9.56334413044629e-08 -1.00402870697184e-25)
(8.70601065727403e-07 -2.93534251556339e-07 -9.1630894668839e-26)