/*--------------------------------*- C++ -*----------------------------------*\
  =========                 |
  \\      /  F ield         | OpenFOAM: The Open Source CFD Toolbox
   \\    /   O peration     | Website:  https://openfoam.org
    \\  /    A nd           | Version:  10
     \\/     M anipulation  |
\*---------------------------------------------------------------------------*/
FoamFile
{
    format      ascii;
    class       volScalarField;
    location    "4.8";
    object      wallHeatFlux;
}
// * * * * * * * * * * * * * * * * * * * * * * * * * * * * * * * * * * * * * //

dimensions      [1 0 -3 0 0 0 0];

internalField   uniform 0;

boundaryField
{
    back
    {
        type            calculated;
        value           uniform 0;
    }
    bottom
    {
        type            calculated;
        value           nonuniform List<scalar> 
50
(
125.660115397862
129.129120875283
133.673100709075
136.380311488477
137.761353718141
138.428837316701
138.739657043077
138.877825115103
138.935973624123
138.959237645545
138.967829706826
138.970870359044
138.97188962918
138.972142751046
138.97218523997
138.972120205101
138.972115863089
138.97207338945
138.972015770142
138.971994048228
138.971976725582
138.971968016711
138.971961762695
138.971963078617
138.971953905595
138.97194803434
138.971952327049
138.971956309947
138.971967960174
138.971978891063
138.971995177789
138.97203116741
138.972043159788
138.97205385581
138.972076535688
138.972083743113
138.972006567194
138.97160577057
138.970454352833
138.966950708058
138.95735876209
138.932564695716
138.871919421682
138.731011473029
138.419589610431
137.75583723861
136.382500172641
133.668237691611
129.072237830453
125.692056068818
)
;
    }
    left
    {
        type            calculated;
        value           uniform 0;
    }
    front
    {
        type            calculated;
        value           uniform 0;
    }
    right
    {
        type            calculated;
        value           uniform 0;
    }
    top
    {
        type            calculated;
        value           uniform 0;
    }
}


// ************************************************************************* //
