/*--------------------------------*- C++ -*----------------------------------*\
  =========                 |
  \\      /  F ield         | OpenFOAM: The Open Source CFD Toolbox
   \\    /   O peration     | Website:  https://openfoam.org
    \\  /    A nd           | Version:  10
     \\/     M anipulation  |
\*---------------------------------------------------------------------------*/
FoamFile
{
    format      ascii;
    class       volScalarField;
    location    "0.6";
    object      alphat;
}
// * * * * * * * * * * * * * * * * * * * * * * * * * * * * * * * * * * * * * //

dimensions      [1 -1 -1 0 0 0 0];

internalField   nonuniform List<scalar> 
2500
(
2.80250814799928e-10
2.96385180210508e-10
3.02336595384849e-10
3.0321133995778e-10
3.03313223016214e-10
3.03324440751097e-10
3.03325672345915e-10
3.03325825090899e-10
3.0332579885672e-10
3.03325850389891e-10
3.03325877449528e-10
3.03325799788551e-10
3.03325780826718e-10
3.03325765636139e-10
3.03325740230945e-10
3.03325714836458e-10
3.03325705796418e-10
3.03325698364889e-10
3.03325691257426e-10
3.03325683917493e-10
3.0332567693678e-10
3.03325671692538e-10
3.03325666574022e-10
3.03325658101293e-10
3.03325649983898e-10
3.03325645643126e-10
3.03325639863424e-10
3.03325634142788e-10
3.03325630356194e-10
3.03325623888459e-10
3.03325618944738e-10
3.03325614424197e-10
3.03325610226945e-10
3.03325606346495e-10
3.03325601624217e-10
3.03325598471445e-10
3.03325596065748e-10
3.03325593770394e-10
3.03325591191183e-10
3.03325589345364e-10
3.03325586928343e-10
3.03325577628682e-10
3.03325513545019e-10
3.03325036670634e-10
3.03321540260924e-10
3.03296783568981e-10
3.03129042983679e-10
3.02053740462783e-10
2.95686650994942e-10
2.80344850434672e-10
1.63425269699692e-09
5.89834130816865e-09
7.6406678750817e-09
7.9265226533326e-09
7.96180542117169e-09
7.96580761321111e-09
7.96624195851516e-09
7.96628637583281e-09
7.96629047429377e-09
7.96629592914465e-09
7.96629862986655e-09
7.96629858430733e-09
7.96629819452489e-09
7.96629380357959e-09
7.96628844296317e-09
7.96628323897286e-09
7.96628182470143e-09
7.96628077214515e-09
7.96627977040068e-09
7.96627878989939e-09
7.96627787752752e-09
7.96627695754375e-09
7.96627606438744e-09
7.966275187665e-09
7.9662743127962e-09
7.96627356388862e-09
7.96627281146101e-09
7.96627209600094e-09
7.96627146646214e-09
7.96627082824385e-09
7.96627021254925e-09
7.96626967171593e-09
7.96626919055318e-09
7.96626872394609e-09
7.96626834511226e-09
7.96626803827311e-09
7.96626787887022e-09
7.96626769634702e-09
7.96626751154396e-09
7.96626745101192e-09
7.96626720120278e-09
7.96626480860405e-09
7.96624547594614e-09
7.9660997302591e-09
7.96504410218462e-09
7.95770221988472e-09
7.90917881013558e-09
7.60908374269816e-09
5.90450877097096e-09
1.63751963185712e-09
1.78908406692161e-09
4.32877050081631e-08
5.24455502195931e-06
5.63559909255739e-06
5.68855073657148e-06
5.69498201486523e-06
5.69571285533502e-06
5.69579173151853e-06
5.69580007461819e-06
5.69580364840912e-06
5.69580411184237e-06
5.69580252652935e-06
5.69580136518091e-06
5.69580003449102e-06
5.69579722670024e-06
5.6957949218607e-06
5.69579386705163e-06
5.6957930454135e-06
5.69579226666256e-06
5.6957915025448e-06
5.69579076474164e-06
5.69579003237367e-06
5.69578931849285e-06
5.6957886301642e-06
5.69578796122197e-06
5.69578732378713e-06
5.69578671369272e-06
5.6957861230406e-06
5.69578556982138e-06
5.69578504174033e-06
5.69578453998849e-06
5.6957840825797e-06
5.69578366060153e-06
5.69578326556209e-06
5.69578291507074e-06
5.69578261528034e-06
5.69578238386824e-06
5.69578216355097e-06
5.69578198947556e-06
5.69578183316833e-06
5.69578132726646e-06
5.69577766919305e-06
5.69574969898973e-06
5.69554178828493e-06
5.69404915423597e-06
5.6837924596324e-06
5.61743401981151e-06
5.22407242430616e-06
4.35922056733722e-08
1.79769803469743e-09
1.83656941514518e-09
5.12331360433801e-08
6.65668772225689e-06
7.20798450377167e-06
7.28823662870694e-06
7.29863588728805e-06
7.29988790240841e-06
7.30003087677145e-06
7.30004676401565e-06
7.300050650933e-06
7.30005011806659e-06
7.30004842837457e-06
7.30004743988068e-06
7.30004623566646e-06
7.30004398513661e-06
7.30004223718565e-06
7.3000411750952e-06
7.30004028671358e-06
7.30003943586917e-06
7.3000385975701e-06
7.30003777698016e-06
7.30003696850513e-06
7.30003618108143e-06
7.3000354139458e-06
7.30003467118123e-06
7.30003395233533e-06
7.30003326333831e-06
7.30003259944024e-06
7.30003196964756e-06
7.30003136635041e-06
7.30003079555843e-06
7.30003025849019e-06
7.30002975695326e-06
7.30002928993213e-06
7.30002886414892e-06
7.30002847979697e-06
7.30002814865941e-06
7.30002784211561e-06
7.30002757490142e-06
7.30002729745801e-06
7.30002657557024e-06
7.30002202259492e-06
7.29998763550362e-06
7.29972808453964e-06
7.29782199290123e-06
7.28437402268127e-06
7.19488943261393e-06
6.65138052625344e-06
5.17487712611653e-08
1.84895559695871e-09
1.85137349331463e-09
5.40530248686517e-08
7.26373973566132e-06
7.90113000717928e-06
7.99849513724498e-06
8.01174655307769e-06
8.01342080385372e-06
8.01362139019671e-06
8.01364474006251e-06
8.01364827119238e-06
8.01364733040773e-06
8.0136462257755e-06
8.01364535282402e-06
8.01364435989617e-06
8.01364286898762e-06
8.01364160562465e-06
8.01364066179819e-06
8.01363981767685e-06
8.01363900188899e-06
8.01363819733685e-06
8.01363740878883e-06
8.01363663418202e-06
8.01363588076063e-06
8.01363514659132e-06
8.01363443848694e-06
8.01363375336281e-06
8.01363309729666e-06
8.01363246696998e-06
8.01363186771022e-06
8.0136312952812e-06
8.01363075539019e-06
8.01363024513785e-06
8.01362976856081e-06
8.01362932369009e-06
8.01362891576756e-06
8.01362854322634e-06
8.01362821285449e-06
8.01362790958871e-06
8.01362763576876e-06
8.01362733256626e-06
8.0136265453622e-06
8.01362170893774e-06
8.01358523749749e-06
8.01330774860565e-06
8.01124625350919e-06
7.99649985198111e-06
7.89688700801137e-06
7.28409445880091e-06
5.4818920035922e-08
1.86639670681245e-09
1.8560866784918e-09
5.50127466789164e-08
7.51015204430535e-06
8.1905002994259e-06
8.29756109839896e-06
8.31262746926832e-06
8.31459997019614e-06
8.31484519238732e-06
8.31487471404707e-06
8.31487812691662e-06
8.31487758145681e-06
8.31487672386611e-06
8.31487592512405e-06
8.31487508603339e-06
8.31487403547767e-06
8.31487306460904e-06
8.31487222884336e-06
8.31487144298925e-06
8.31487067727901e-06
8.31486992152999e-06
8.3148691817278e-06
8.31486845610447e-06
8.31486775194614e-06
8.31486706711904e-06
8.31486640822728e-06
8.31486577208526e-06
8.31486516453916e-06
8.31486458208175e-06
8.31486402970402e-06
8.31486350350461e-06
8.31486300833091e-06
8.31486254054687e-06
8.3148621046567e-06
8.31486169758617e-06
8.31486132390205e-06
8.31486098100983e-06
8.31486067321639e-06
8.31486039113176e-06
8.31486013103194e-06
8.31485982951612e-06
8.31485902432827e-06
8.3148540906642e-06
8.31481690299817e-06
8.3145330778878e-06
8.31241433577906e-06
8.29716782760526e-06
8.19347088188843e-06
7.55129326209239e-06
5.59530950149159e-08
1.87252903368641e-09
1.85761367968033e-09
5.53345370356675e-08
7.6063220362679e-06
8.30675570056505e-06
8.41888738437358e-06
8.43500549161646e-06
8.43716774101189e-06
8.43744386405174e-06
8.4374778805437e-06
8.43748167290816e-06
8.43748140268407e-06
8.43748068948928e-06
8.43747992167602e-06
8.43747916808731e-06
8.43747833213286e-06
8.4374775166669e-06
8.43747675437848e-06
8.43747601489519e-06
8.43747528994313e-06
8.43747457406383e-06
8.43747387411878e-06
8.43747318844711e-06
8.43747252430007e-06
8.43747187937948e-06
8.43747126017696e-06
8.43747066350778e-06
8.43747009502638e-06
8.43746955101186e-06
8.4374690363578e-06
8.43746854705534e-06
8.43746808762759e-06
8.43746765421767e-06
8.43746725114707e-06
8.43746687495425e-06
8.43746652976636e-06
8.43746621233826e-06
8.43746592586642e-06
8.43746566308462e-06
8.4374654176181e-06
8.43746512389015e-06
8.43746431656776e-06
8.43745935082001e-06
8.43742192071226e-06
8.43713592630938e-06
8.43499702397658e-06
8.41956835891995e-06
8.31432457562452e-06
7.66040080102018e-06
5.63710617104834e-08
1.87472078616394e-09
1.85811472122715e-09
5.54420146013502e-08
7.6428016495159e-06
8.35214368668008e-06
8.46676472484173e-06
8.48344927862631e-06
8.48572279179213e-06
8.48601850873287e-06
8.48605558597124e-06
8.48605976478276e-06
8.48605967374525e-06
8.48605903703535e-06
8.4860582968924e-06
8.48605758995688e-06
8.48605685367983e-06
8.48605611742042e-06
8.4860554006994e-06
8.48605469364245e-06
8.48605399786459e-06
8.48605331055329e-06
8.48605263904489e-06
8.48605198176439e-06
8.48605134590629e-06
8.48605072911855e-06
8.48605013778926e-06
8.48604956872055e-06
8.48604902744301e-06
8.48604851014137e-06
8.48604802161836e-06
8.48604755778416e-06
8.48604712300695e-06
8.48604671332278e-06
8.48604633288913e-06
8.48604597808606e-06
8.48604565278074e-06
8.48604535340348e-06
8.48604508264496e-06
8.48604483399652e-06
8.48604460001115e-06
8.4860443142024e-06
8.48604351004569e-06
8.48603853624312e-06
8.48600102934973e-06
8.48571433051489e-06
8.48356869665232e-06
8.46807710387912e-06
8.36227633860197e-06
7.70385854868419e-06
5.6525311456905e-08
1.87551089144918e-09
1.85828052650996e-09
5.547793698175e-08
7.65634681249245e-06
8.3694775137973e-06
8.48526032304373e-06
8.50223264469418e-06
8.50456728088949e-06
8.50487456913e-06
8.5049135834463e-06
8.50491805654193e-06
8.50491807069742e-06
8.50491748329448e-06
8.50491676754177e-06
8.50491608899249e-06
8.50491540155739e-06
8.50491470788267e-06
8.50491402073805e-06
8.50491333739393e-06
8.50491266363589e-06
8.50491199795686e-06
8.50491134791528e-06
8.50491071198924e-06
8.50491009730146e-06
8.5049095014847e-06
8.50490893084063e-06
8.50490838216297e-06
8.50490786088819e-06
8.50490736318103e-06
8.5049068937535e-06
8.50490644849326e-06
8.50490603166164e-06
8.50490563926182e-06
8.5049052753335e-06
8.50490493619818e-06
8.50490462557026e-06
8.50490433975185e-06
8.50490408119829e-06
8.50490384369745e-06
8.50490361942098e-06
8.50490334161706e-06
8.50490254340937e-06
8.50489757164294e-06
8.50486004565084e-06
8.50457313528646e-06
8.50242538062507e-06
8.48691311301827e-06
8.3809201035129e-06
7.72083923833623e-06
5.65823015508476e-08
1.87579683324686e-09
1.85833563563263e-09
5.5489965714574e-08
7.66129374047598e-06
8.37598277530452e-06
8.49228604358569e-06
8.50939777919666e-06
8.51176425284763e-06
8.51207798496114e-06
8.51211815514747e-06
8.51212282359692e-06
8.51212290024298e-06
8.51212234623358e-06
8.51212165093214e-06
8.51212099240588e-06
8.51212033253308e-06
8.51211966480243e-06
8.51211899880524e-06
8.51211833413393e-06
8.51211767818701e-06
8.51211703005764e-06
8.51211639736871e-06
8.51211577863718e-06
8.51211518090449e-06
8.51211460181482e-06
8.51211404758179e-06
8.51211351501743e-06
8.51211300947182e-06
8.51211252712742e-06
8.51211207261205e-06
8.51211164182821e-06
8.51211123894794e-06
8.51211085998411e-06
8.51211050888012e-06
8.51211018195643e-06
8.51210988282169e-06
8.51210960775441e-06
8.51210935909436e-06
8.51210913079404e-06
8.51210891493156e-06
8.51210864481917e-06
8.51210785361706e-06
8.5121028878811e-06
8.51206536222533e-06
8.51177839753677e-06
8.50963001968812e-06
8.4941112939319e-06
8.38805436268319e-06
7.72737380495469e-06
5.66033480849689e-08
1.8759003928283e-09
1.85835388365994e-09
5.54939945656951e-08
7.66307638954866e-06
8.37838945572314e-06
8.49491821496709e-06
8.51209489639254e-06
8.51447723580162e-06
8.51479438592671e-06
8.51483520990532e-06
8.51483999902738e-06
8.51484011511208e-06
8.51483958566951e-06
8.51483890850199e-06
8.51483826706328e-06
8.5148376270855e-06
8.51483697908049e-06
8.51483633119693e-06
8.51483568367657e-06
8.51483504445589e-06
8.51483441287835e-06
8.51483379654215e-06
8.51483319398712e-06
8.514832612166e-06
8.5148320487406e-06
8.51483150983865e-06
8.51483099229677e-06
8.51483050138476e-06
8.51483003331463e-06
8.51482959263553e-06
8.5148291752798e-06
8.51482878533817e-06
8.51482841884935e-06
8.51482807967274e-06
8.51482776415039e-06
8.51482747580862e-06
8.51482721094946e-06
8.51482697185129e-06
8.51482675260364e-06
8.51482654531888e-06
8.51482628353445e-06
8.51482550064531e-06
8.51482054346348e-06
8.51478302553082e-06
8.51449605471488e-06
8.5123475124195e-06
8.49682687742578e-06
8.39074940368142e-06
7.72985696210779e-06
5.66111008499577e-08
1.87593776386563e-09
1.85835982587856e-09
5.54953394629807e-08
7.66371138631483e-06
8.37926899907297e-06
8.49589278505704e-06
8.51309874444378e-06
8.51548870040565e-06
8.5158075899376e-06
8.51584876690085e-06
8.51585362756284e-06
8.51585377058539e-06
8.51585326069545e-06
8.51585260009931e-06
8.51585197443867e-06
8.51585135136114e-06
8.51585072049706e-06
8.51585008934993e-06
8.51584945821077e-06
8.51584883511645e-06
8.51584821951235e-06
8.51584761892557e-06
8.51584703191958e-06
8.51584646535272e-06
8.5158459169151e-06
8.51584539264625e-06
8.51584488942051e-06
8.5158444124243e-06
8.51584395791235e-06
8.51584353035305e-06
8.51584312572045e-06
8.51584274802332e-06
8.51584239333709e-06
8.51584206543696e-06
8.51584176069925e-06
8.51584148257146e-06
8.51584122740346e-06
8.51584099743192e-06
8.51584078688597e-06
8.51584058796591e-06
8.51584033452423e-06
8.51583956029434e-06
8.51583461256748e-06
8.51579710481583e-06
8.51551014152542e-06
8.51336156537972e-06
8.4978403977002e-06
8.39175651603336e-06
7.73079035198851e-06
5.66139426473597e-08
1.87595115550646e-09
1.85836165554548e-09
5.54957864413575e-08
7.6639349546289e-06
8.37958666669711e-06
8.49624957785556e-06
8.51346837052801e-06
8.51586186621134e-06
8.51618160913336e-06
8.51622296903491e-06
8.51622787174619e-06
8.51622803515302e-06
8.51622754229062e-06
8.51622689770077e-06
8.51622628769358e-06
8.51622568092845e-06
8.51622506689166e-06
8.51622445288401e-06
8.51622383883215e-06
8.51622323267152e-06
8.51622263387326e-06
8.51622204986952e-06
8.51622147924004e-06
8.51622092874589e-06
8.51622039610411e-06
8.51621988726523e-06
8.51621939914066e-06
8.51621893683465e-06
8.51621849664438e-06
8.51621808295803e-06
8.5162176917915e-06
8.51621732707105e-06
8.51621698490929e-06
8.51621666899643e-06
8.51621637574442e-06
8.51621610852339e-06
8.51621586373768e-06
8.51621564359308e-06
8.51621544246379e-06
8.51621525266971e-06
8.51621500842815e-06
8.51621424388133e-06
8.51620930691142e-06
8.51617181120511e-06
8.51588486010624e-06
8.51373628492918e-06
8.4982149780036e-06
8.39212913183725e-06
7.73113755298448e-06
5.66149738396534e-08
1.87595582930673e-09
1.85836247775258e-09
5.54959344326815e-08
7.66401272966761e-06
8.37969997245423e-06
8.49637861413696e-06
8.51360287935024e-06
8.51599796945962e-06
8.51631811602063e-06
8.5163595663224e-06
8.51636449340988e-06
8.51636467245671e-06
8.51636419366236e-06
8.51636356316169e-06
8.51636296726091e-06
8.51636237518177e-06
8.51636177675534e-06
8.51636117970126e-06
8.51636058275825e-06
8.51635999357821e-06
8.51635941162936e-06
8.51635884423666e-06
8.5163582900011e-06
8.51635775558435e-06
8.51635723873821e-06
8.51635674532232e-06
8.51635627229226e-06
8.51635582466725e-06
8.51635539879419e-06
8.51635499897681e-06
8.51635462127879e-06
8.51635426953924e-06
8.51635393991144e-06
8.51635363599531e-06
8.51635335424073e-06
8.51635309793712e-06
8.51635286354732e-06
8.51635265324786e-06
8.51635246156868e-06
8.51635228096446e-06
8.51635204605585e-06
8.51635129144379e-06
8.51634636568936e-06
8.51630888281725e-06
8.51602194553835e-06
8.51387338030036e-06
8.49835203983438e-06
8.39226559411323e-06
7.73126528847677e-06
5.66153415632912e-08
1.87595742266931e-09
1.85836756541887e-09
5.54959694463687e-08
7.66403983307596e-06
8.37973981061119e-06
8.49642443408799e-06
8.51365091333056e-06
8.51604668544177e-06
8.51636701122105e-06
8.51640850095495e-06
8.51641344018166e-06
8.51641362901434e-06
8.51641315832561e-06
8.51641253665672e-06
8.51641195032869e-06
8.51641136871445e-06
8.51641078286112e-06
8.51641020277809e-06
8.51640962347278e-06
8.51640905189782e-06
8.51640848746725e-06
8.51640793739036e-06
8.51640740028285e-06
8.51640688270575e-06
8.51640638244186e-06
8.51640590525926e-06
8.51640544815698e-06
8.51640501606943e-06
8.5164046053908e-06
8.51640422034226e-06
8.51640385703265e-06
8.51640351921507e-06
8.51640320308102e-06
8.51640291214119e-06
8.51640264288136e-06
8.51640239851195e-06
8.51640217555715e-06
8.51640197617166e-06
8.51640179504989e-06
8.51640162480485e-06
8.51640140049174e-06
8.51640065722505e-06
8.51639574432015e-06
8.51635827625066e-06
8.51607135532088e-06
8.51392280516412e-06
8.49840146869543e-06
8.39231487274948e-06
7.73131170545574e-06
5.66154687579387e-08
1.87595827503228e-09
1.85836750619581e-09
5.54959541061502e-08
7.66404769125619e-06
8.37975259301201e-06
8.49643997269477e-06
8.51366742472711e-06
8.51606349344867e-06
8.51638389737892e-06
8.51642540431594e-06
8.51643035244764e-06
8.51643055336002e-06
8.51643009622508e-06
8.51642948945387e-06
8.51642891824838e-06
8.5164283521932e-06
8.51642778231846e-06
8.51642721854402e-06
8.51642665535541e-06
8.51642609989423e-06
8.51642555157575e-06
8.51642501749053e-06
8.51642449627285e-06
8.51642399438159e-06
8.51642350963595e-06
8.5164230477126e-06
8.51642260566039e-06
8.51642218832923e-06
8.51642179216927e-06
8.51642142132039e-06
8.5164210719455e-06
8.51642074771296e-06
8.51642044486298e-06
8.51642016681943e-06
8.51641991011655e-06
8.51641967789145e-06
8.51641946674472e-06
8.51641927882394e-06
8.51641910901452e-06
8.51641895011703e-06
8.51641873767241e-06
8.51641800737202e-06
8.51641310938446e-06
8.51637565877462e-06
8.51608875781854e-06
8.51394022975249e-06
8.49841892763732e-06
8.39233243788761e-06
7.73132901032186e-06
5.66155204810388e-08
1.87596429645917e-09
1.85836194372305e-09
5.54959491119577e-08
7.66404829370834e-06
8.37975562055662e-06
8.49644425373457e-06
8.51367214613342e-06
8.51606836050032e-06
8.51638880738737e-06
8.51643033051865e-06
8.51643529473268e-06
8.51643551819915e-06
8.51643508752158e-06
8.51643450812809e-06
8.51643396358123e-06
8.51643342402707e-06
8.51643287896231e-06
8.51643233552073e-06
8.51643179237781e-06
8.5164312567736e-06
8.51643072813631e-06
8.5164302134486e-06
8.51642971136465e-06
8.51642922824439e-06
8.51642876194154e-06
8.51642831804259e-06
8.51642789363898e-06
8.51642749349389e-06
8.51642711410254e-06
8.51642675951579e-06
8.51642642593417e-06
8.51642611692817e-06
8.51642582876494e-06
8.51642556476322e-06
8.51642532147785e-06
8.51642510194682e-06
8.51642490281499e-06
8.51642472619307e-06
8.51642456712539e-06
8.5164244185732e-06
8.51642421653841e-06
8.51642349727451e-06
8.51641861179521e-06
8.51638117569562e-06
8.51609429064257e-06
8.51394577571497e-06
8.49842447657884e-06
8.39233798030253e-06
7.73133440590635e-06
5.66155245841801e-08
1.87596412804018e-09
1.85836171211689e-09
5.54959401479391e-08
7.66404900845938e-06
8.37975589171021e-06
8.49644457909813e-06
8.51367265614075e-06
8.51606893679618e-06
8.51638940705692e-06
8.51643094275165e-06
8.51643592302745e-06
8.51643616823026e-06
8.51643576147048e-06
8.51643520734405e-06
8.5164346878067e-06
8.51643417319183e-06
8.51643365254425e-06
8.51643313210045e-06
8.51643261156024e-06
8.51643209817341e-06
8.51643159139483e-06
8.51643109810794e-06
8.51643061699896e-06
8.51643015433382e-06
8.51642970800868e-06
8.51642928351824e-06
8.51642887800204e-06
8.51642849612878e-06
8.51642813443798e-06
8.51642779688206e-06
8.51642747968909e-06
8.51642718631536e-06
8.51642691304125e-06
8.51642666305755e-06
8.51642643292171e-06
8.51642622554169e-06
8.51642603757927e-06
8.51642587107487e-06
8.51642572120632e-06
8.51642558106302e-06
8.51642538708821e-06
8.516424676078e-06
8.51641979987999e-06
8.51638237450505e-06
8.51609550003418e-06
8.5139469845803e-06
8.49842562676001e-06
8.39233888193233e-06
7.73133493013252e-06
5.66155081657847e-08
1.87595807296184e-09
1.85836672915716e-09
5.54959353632862e-08
7.6640486558377e-06
8.37975488266103e-06
8.49644364236682e-06
8.51367176844961e-06
8.51606806845081e-06
8.51638854592573e-06
8.51643008644529e-06
8.5164350770789e-06
8.5164353386631e-06
8.51643495057689e-06
8.5164344175741e-06
8.51643391958578e-06
8.51643342680684e-06
8.51643292802743e-06
8.51643242905653e-06
8.51643192982411e-06
8.5164314375085e-06
8.51643095157328e-06
8.51643047879831e-06
8.51643001789595e-06
8.51642957503729e-06
8.51642914815657e-06
8.51642874266176e-06
8.51642835573734e-06
8.51642799196279e-06
8.51642764792272e-06
8.51642732748014e-06
8.51642702688879e-06
8.51642674949703e-06
8.51642649160246e-06
8.51642625628141e-06
8.51642604010479e-06
8.5164258458611e-06
8.51642567023726e-06
8.51642551522627e-06
8.51642537616684e-06
8.51642524631313e-06
8.51642506259729e-06
8.51642436241922e-06
8.5164194985597e-06
8.5163820876938e-06
8.51609522942422e-06
8.51394672747252e-06
8.49842537237571e-06
8.39233867383119e-06
7.73133596520515e-06
5.6615511941892e-08
1.8759579463169e-09
1.85836923424819e-09
5.54959708802636e-08
7.66404845505393e-06
8.37975391620603e-06
8.49644236841297e-06
8.51367046675747e-06
8.5160667650398e-06
8.51638724306947e-06
8.51642878524248e-06
8.51643378361643e-06
8.51643405901627e-06
8.51643368708401e-06
8.51643317353615e-06
8.51643269558173e-06
8.51643222313237e-06
8.51643174481269e-06
8.51643126615624e-06
8.51643078711841e-06
8.51643031477199e-06
8.51642984859171e-06
8.51642939525844e-06
8.51642895351829e-06
8.51642852944854e-06
8.51642812102897e-06
8.51642773358479e-06
8.51642736435557e-06
8.51642701782793e-06
8.51642669064079e-06
8.51642638657522e-06
8.51642610190296e-06
8.51642583985977e-06
8.51642559676509e-06
8.51642537558367e-06
8.51642517291634e-06
8.51642499141758e-06
8.51642482779547e-06
8.51642468399596e-06
8.51642455554487e-06
8.51642443586432e-06
8.51642426240295e-06
8.51642357318707e-06
8.51641872198978e-06
8.51638132623906e-06
8.51609448526123e-06
8.51394599903083e-06
8.49842464884361e-06
8.3923379678534e-06
7.73133602014521e-06
5.66155165330447e-08
1.87596376001293e-09
1.85837225600807e-09
5.54960080798195e-08
7.66404707379914e-06
8.37975224534447e-06
8.49644081058836e-06
8.5136689139007e-06
8.51606521157599e-06
8.5163856903454e-06
8.51642723561053e-06
8.51643224481015e-06
8.51643253753997e-06
8.51643218498786e-06
8.51643169199312e-06
8.51643123423921e-06
8.51643078216365e-06
8.51643032439598e-06
8.51642986625713e-06
8.51642940766503e-06
8.51642895557348e-06
8.5164285094593e-06
8.51642807590895e-06
8.51642765369976e-06
8.51642724881339e-06
8.51642685927038e-06
8.51642649032324e-06
8.51642613927061e-06
8.51642581049642e-06
8.51642550069749e-06
8.51642521359708e-06
8.51642494544744e-06
8.51642469936653e-06
8.51642447169e-06
8.51642426528343e-06
8.51642407680705e-06
8.51642390874474e-06
8.51642375780783e-06
8.51642362589443e-06
8.51642350877118e-06
8.51642340000946e-06
8.51642323757481e-06
8.51642256013331e-06
8.5164177225029e-06
8.51638034291553e-06
8.5160935204089e-06
8.51394505067842e-06
8.49842370075143e-06
8.39233692085781e-06
7.73133397063907e-06
5.66155192978179e-08
1.87596413690175e-09
1.85837410410794e-09
5.54959510885425e-08
7.6640425001502e-06
8.37975013835744e-06
8.49643904617638e-06
8.51366720665702e-06
8.51606351282569e-06
8.51638399474408e-06
8.51642554592807e-06
8.51643057000221e-06
8.51643088434518e-06
8.51643055485456e-06
8.51643008374821e-06
8.51642964703417e-06
8.51642921612078e-06
8.51642877970498e-06
8.51642834291544e-06
8.51642790561873e-06
8.51642747464359e-06
8.51642704946537e-06
8.51642663657841e-06
8.51642623480051e-06
8.5164258499976e-06
8.51642548023327e-06
8.51642513069409e-06
8.51642479876624e-06
8.51642448868802e-06
8.51642419723253e-06
8.51642392811286e-06
8.51642367748324e-06
8.51642344832158e-06
8.51642323697949e-06
8.51642304624096e-06
8.51642287290892e-06
8.51642271917075e-06
8.51642258172977e-06
8.5164224624186e-06
8.51642235711235e-06
8.51642225961467e-06
8.51642210844588e-06
8.51642144300912e-06
8.51641661919371e-06
8.51637925604021e-06
8.51609245213562e-06
8.51394399770296e-06
8.4984226368796e-06
8.39233569663949e-06
7.73133111936989e-06
5.66155187056568e-08
1.87596317090293e-09
1.85836528169183e-09
5.54958594779226e-08
7.66403838323905e-06
8.37974777765683e-06
8.49643707787074e-06
8.51366531021106e-06
8.51606162735356e-06
8.51638211277463e-06
8.51642367021536e-06
8.51642870905914e-06
8.51642904478803e-06
8.51642873831123e-06
8.51642829017345e-06
8.51642787590981e-06
8.51642746767671e-06
8.51642705420612e-06
8.51642664043237e-06
8.51642622615838e-06
8.51642581809148e-06
8.51642541568119e-06
8.51642502533877e-06
8.51642464593427e-06
8.5164242831745e-06
8.51642393515153e-06
8.51642360700977e-06
8.51642329628292e-06
8.51642300696415e-06
8.51642273593714e-06
8.51642248700582e-06
8.51642225604572e-06
8.51642204588436e-06
8.51642185288366e-06
8.51642167963173e-06
8.51642152279978e-06
8.51642138461792e-06
8.51642126186488e-06
8.51642115633203e-06
8.51642106404384e-06
8.51642097900676e-06
8.51642084027743e-06
8.51642018800937e-06
8.51641537917605e-06
8.51637803362408e-06
8.51609124926467e-06
8.51394280918558e-06
8.4984214280738e-06
8.39233430692889e-06
7.73132881047201e-06
5.6615486565698e-08
1.87597042749732e-09
1.85835988925581e-09
5.54958100644454e-08
7.66403526013767e-06
8.37974562492924e-06
8.49643520797143e-06
8.51366349902307e-06
8.51605982530841e-06
8.51638031344387e-06
8.51642187595544e-06
8.51642692780243e-06
8.51642728300753e-06
8.51642699771097e-06
8.51642657151097e-06
8.51642617886947e-06
8.51642579248845e-06
8.51642540110406e-06
8.51642500945901e-06
8.51642461731542e-06
8.51642423129669e-06
8.51642385079815e-06
8.51642348217629e-06
8.51642312443005e-06
8.51642278300263e-06
8.51642245601081e-06
8.51642214859671e-06
8.51642185861211e-06
8.5164215895598e-06
8.51642133825084e-06
8.51642110817398e-06
8.51642089556079e-06
8.51642070314179e-06
8.51642052728563e-06
8.51642037042326e-06
8.51642022916471e-06
8.51642010566387e-06
8.51641999675747e-06
8.51641990420166e-06
8.51641982418428e-06
8.51641975089913e-06
8.5164196239369e-06
8.51641898422315e-06
8.51641418984611e-06
8.51637686149386e-06
8.51609009658274e-06
8.5139416720025e-06
8.49842027690845e-06
8.39233302905339e-06
7.7313270390013e-06
5.66154551164672e-08
1.87597101040005e-09
1.85835918185545e-09
5.54957807362734e-08
7.66403268425376e-06
8.37974356079221e-06
8.49643333553074e-06
8.51366166988827e-06
8.51605800269314e-06
8.51637849295656e-06
8.51642005988052e-06
8.51642512395015e-06
8.51642549773602e-06
8.51642523265757e-06
8.51642482802866e-06
8.51642445685439e-06
8.51642409226473e-06
8.51642372294255e-06
8.5164233534343e-06
8.51642298347706e-06
8.51642261970562e-06
8.51642226135649e-06
8.51642191475965e-06
8.51642157922238e-06
8.51642125967347e-06
8.51642095423816e-06
8.51642066785107e-06
8.51642039813912e-06
8.51642014889926e-06
8.51641991695908e-06
8.51641970562488e-06
8.51641951128028e-06
8.51641933656543e-06
8.51641917784972e-06
8.51641903742608e-06
8.51641891186507e-06
8.51641880320592e-06
8.51641870832523e-06
8.51641862895639e-06
8.51641856145619e-06
8.51641850017292e-06
8.51641838519801e-06
8.51641775831534e-06
8.51641297877617e-06
8.51637566811693e-06
8.51608892347999e-06
8.51394051694031e-06
8.49841912208497e-06
8.39233181164165e-06
7.73132560616644e-06
5.66154348794251e-08
1.8759629808924e-09
1.85835886634096e-09
5.54957594017529e-08
7.66403047662104e-06
8.37974165459363e-06
8.49643155877615e-06
8.51365992457513e-06
8.5160562619688e-06
8.51637675390046e-06
8.51641832469391e-06
8.51642340054921e-06
8.5164237921221e-06
8.51642354581716e-06
8.51642316193569e-06
8.51642281152114e-06
8.51642246808554e-06
8.51642212017593e-06
8.51642177212984e-06
8.51642142367803e-06
8.51642108170735e-06
8.516420745052e-06
8.51642041972829e-06
8.51642010478713e-06
8.51641980548936e-06
8.51641952001894e-06
8.5164192531745e-06
8.51641900252635e-06
8.51641877193226e-06
8.51641855826381e-06
8.51641836470066e-06
8.51641818769954e-06
8.51641802980403e-06
8.51641788738571e-06
8.51641776260608e-06
8.51641765200182e-06
8.51641755746492e-06
8.51641747591518e-06
8.51641740909895e-06
8.5164173535644e-06
8.51641730369084e-06
8.51641719992417e-06
8.51641658515742e-06
8.5164118199503e-06
8.51637452657127e-06
8.51608780201833e-06
8.51393941428061e-06
8.49841802369165e-06
8.39233068055807e-06
7.73132438158811e-06
5.6615421069149e-08
1.87595695717849e-09
1.85835856526225e-09
5.54957394510494e-08
7.66402833597896e-06
8.37973974091915e-06
8.49642975266681e-06
8.51365814427628e-06
8.51605448516393e-06
8.51637497867214e-06
8.51641655331506e-06
8.51642164200436e-06
8.51642205168593e-06
8.51642182246283e-06
8.51642145929195e-06
8.51642112981507e-06
8.51642080797097e-06
8.51642048196864e-06
8.51642015590086e-06
8.51641982936404e-06
8.51641950869011e-06
8.51641919311838e-06
8.51641888856494e-06
8.51641859401495e-06
8.51641831480179e-06
8.51641804916675e-06
8.51641780180842e-06
8.51641757029712e-06
8.51641735846353e-06
8.51641716321908e-06
8.51641698764399e-06
8.51641682823664e-06
8.51641668744731e-06
8.51641656164737e-06
8.51641645288019e-06
8.51641635763514e-06
8.51641627757673e-06
8.51641620970466e-06
8.51641615591767e-06
8.51641611305316e-06
8.51641607515144e-06
8.51641598241888e-06
8.51641537965402e-06
8.51641062919589e-06
8.51637335358397e-06
8.51608664968573e-06
8.51393828159532e-06
8.49841689933899e-06
8.39232953480601e-06
7.73132319973748e-06
5.66154114781302e-08
1.87595638921252e-09
1.85835829128254e-09
5.54957212260664e-08
7.66402631765577e-06
8.37973791928628e-06
8.49642802299481e-06
8.51365643739905e-06
8.5160527815421e-06
8.51637327663279e-06
8.51641485489062e-06
8.51641995976727e-06
8.51642038897069e-06
8.51642017128609e-06
8.51641982817212e-06
8.51641951880693e-06
8.51641921702646e-06
8.51641891133264e-06
8.51641860562561e-06
8.51641829939526e-06
8.51641799870047e-06
8.51641770293539e-06
8.51641741793073e-06
8.51641714267347e-06
8.51641688247332e-06
8.51641663562581e-06
8.51641640674437e-06
8.51641619342792e-06
8.51641599944548e-06
8.51641582175287e-06
8.5164156633446e-06
8.51641552076775e-06
8.51641539639598e-06
8.51641528660509e-06
8.51641519335387e-06
8.51641511307243e-06
8.51641504689707e-06
8.51641499202924e-06
8.51641495100853e-06
8.51641492137763e-06
8.51641489575084e-06
8.51641481185036e-06
8.51641421886705e-06
8.51640948259522e-06
8.51637222430743e-06
8.51608554073612e-06
8.51393719229835e-06
8.49841581784043e-06
8.39232843701398e-06
7.73132208106634e-06
5.66154029878014e-08
1.87595624595902e-09
1.85835800734271e-09
5.54957032121257e-08