/*--------------------------------*- C++ -*----------------------------------*\
  =========                 |
  \\      /  F ield         | OpenFOAM: The Open Source CFD Toolbox
   \\    /   O peration     | Website:  https://openfoam.org
    \\  /    A nd           | Version:  10
     \\/     M anipulation  |
\*---------------------------------------------------------------------------*/
FoamFile
{
    format      ascii;
    class       volScalarField;
    location    "0.6";
    object      h;
}
// * * * * * * * * * * * * * * * * * * * * * * * * * * * * * * * * * * * * * //

dimensions      [0 2 -2 0 0 0 0];

internalField   nonuniform List<scalar> 
2500
(
5834.91525523731
5687.7934213805
5675.81052471219
5675.18459497824
5675.15410823174
5675.15143958272
5675.1506565178
5675.14977447873
5675.14882399907
5675.14841136196
5675.14772590207
5675.14725687897
5675.14697177841
5675.1465943785
5675.14624983116
5675.14584969476
5675.14566387223
5675.14538067968
5675.1450923073
5675.1449371942
5675.14468253225
5675.14344958984
5675.1423005147
5675.14330217992
5675.14430790931
5675.14315980431
5675.14305920129
5675.14310269086
5675.14217500805
5675.14306209367
5675.14323515166
5675.14331813089
5675.14343955619
5675.14356018943
5675.14444595672
5675.14460072852
5675.14478674987
5675.1449418455
5675.14519987886
5675.14545713684
5675.14577679723
5675.14612726005
5675.14653551934
5675.14688913299
5675.14785881636
5675.15102894772
5675.19225858323
5675.90823711917
5688.16903533388
5835.06569100068
2893.79983290511
2794.29124781581
2744.97103366382
2741.94971033323
2741.77388873979
2741.76268255514
2741.76186236542
2741.76166691175
2741.76151859239
2741.76144742582
2741.76134526173
2741.76126625918
2741.761232865
2741.7612094934
2741.7611837995
2741.76113856559
2741.76111755113
2741.76108517079
2741.76105845799
2741.76103150954
2741.76023318709
2741.76003190544
2741.75995422072
2741.760134658
2741.76100372149
2741.76014055925
2741.76014417492
2741.76016341519
2741.75941661886
2741.75961430074
2741.76029923008
2741.76042517066
2741.76042050614
2741.76109679448
2741.76124755739
2741.76129558424
2741.76134214323
2741.76138150928
2741.76142677784
2741.76147547426
2741.7615413362
2741.76161136462
2741.76170378733
2741.76196278222
2741.76392219995
2741.78224964604
2741.99622983407
2745.08767690863
2794.80998233669
2902.28364457774
2087.03485881146
2050.85720637716
2033.12910930472
2030.79425081727
2030.64501511901
2030.63524015723
2030.6345685976
2030.63449729389
2030.63447284154
2030.63446202439
2030.63444651466
2030.6343301837
2030.63432512536
2030.63443378556
2030.63444012996
2030.63443685611
2030.63443701241
2030.63443294301
2030.63443222248
2030.63442850808
2030.63417930913
2030.63419181375
2030.63428306998
2030.63422105657
2030.63431902535
2030.63420236255
2030.6341193577
2030.63421688511
2030.63414936942
2030.63417994426
2030.63440482512
2030.63429969199
2030.63423691924
2030.63441717502
2030.63454268744
2030.6345599962
2030.63457405117
2030.63458451759
2030.63459449191
2030.63460588637
2030.63461958566
2030.63463394695
2030.63465815038
2030.63477620623
2030.63582378273
2030.64689278199
2030.79057066859
2032.98060219156
2050.80819264593
2092.78784700593
1904.02075438153
1894.19478597399
1891.30431894337
1890.61910405418
1890.56648876089
1890.56273292084
1890.56246517543
1890.56244416367
1890.56243997755
1890.56243920353
1890.5624368713
1890.56239751537
1890.56238104453
1890.56241508185
1890.56243891543
1890.56243924731
1890.56243908417
1890.56241434322
1890.56241420949
1890.56241470323
1890.56238003492
1890.56238823218
1890.56239973956
1890.56238955745
1890.56240897265
1890.56241490299
1890.56240726071
1890.56242409284
1890.56239023299
1890.56240072347
1890.56243895975
1890.56242404088
1890.56242972414
1890.56243943534
1890.56243945897
1890.56246101538
1890.5624815491
1890.5624844902
1890.562486739
1890.56248918711
1890.56249190043
1890.56249473202
1890.56249948777
1890.56252578145
1890.56277870449
1890.56574671038
1890.60816200804
1891.25822941123
1894.15513197572
1906.07379552293
1866.75643308975
1864.4756383062
1864.04997586092
1863.89145584908
1863.87721843165
1863.87610472501
1863.87602147297
1863.87601574711
1863.87601499412
1863.87601490528
1863.87601099411
1863.87600526034
1863.87600298711
1863.87600838803
1863.87601565791
1863.8760160112
1863.87601600785
1863.87600732014
1863.87600835328
1863.87600748059
1863.87600477209
1863.87600480767
1863.87600796639
1863.87601053725
1863.87600986107
1863.876010759
1863.87601028243
1863.87600814697
1863.87600368678
1863.87601050441
1863.87601520417
1863.87601083393
1863.87601544017
1863.87601652183
1863.87601387851
1863.87602093555
1863.87602705818
1863.87602784011
1863.87602834701
1863.87602883791
1863.87602938962
1863.87602994619
1863.87603087089
1863.87603644373
1863.87609273247
1863.87679034907
1863.88714054322
1864.04135641809
1864.45791434723
1867.31789350953
1859.68457428652
1859.20532421402
1859.14397551356
1859.11151797477
1859.10819426344
1859.10791079811
1859.10788852208
1859.10788701001
1859.10788686293
1859.10788685148
1859.10788556934
1859.10788504068
1859.1078845204
1859.10788544038
1859.10788712068
1859.10788724594
1859.1078872571
1859.10788515224
1859.10788468131
1859.10788439763
1859.10788432573
1859.10788502265
1859.10788661382
1859.10788698471
1859.10788592801
1859.10788632646
1859.10788693306
1859.10788598722
1859.10788548523
1859.1078865995
1859.10788706774
1859.10788669724
1859.10788746334
1859.10788755248
1859.10788676483
1859.10788842645
1859.10788983311
1859.10789001902
1859.10789012816
1859.10789023084
1859.10789034005
1859.10789044616
1859.10789062514
1859.10789174252
1859.10790335538
1859.10805174786
1859.11029149182
1859.14280153875
1859.19938235626
1859.81667625286
1858.40738556454
1858.31342608042
1858.30437676915
1858.29821026918
1858.2975046065
1858.29743937011
1858.29743396728
1858.29743358764
1858.29743355703
1858.29743355625
1858.29743326238
1858.29743322706
1858.29743312281
1858.29743328249
1858.29743362404
1858.29743365631
1858.29743366233
1858.29743322637
1858.29743302802
1858.29743314395
1858.29743315063
1858.29743329055
1858.29743364543
1858.29743370676
1858.29743341509
1858.29743351314
1858.29743373325
1858.29743346951
1858.29743345006
1858.29743357002
1858.29743366786
1858.29743361239
1858.29743375932
1858.29743376264
1858.29743358773
1858.29743392751
1858.29743421212
1858.29743425083
1858.29743427502
1858.29743429723
1858.29743431804
1858.29743433795
1858.29743437177
1858.2974345846
1858.29743683304
1858.29746609861
1858.29791180494
1858.30425027512
1858.31174639243
1858.43556999472
1858.1850504409
1858.16754812769
1858.16614718842
1858.16503347274
1858.16489329701
1858.16487932887
1858.16487810715
1858.16487801665
1858.16487801068
1858.16487801074
1858.16487795231
1858.16487795287
1858.16487793385
1858.16487796099
1858.16487802472
1858.16487803236
1858.16487803412
1858.16487795158
1858.16487790414
1858.16487794945
1858.16487794621
1858.16487797334
1858.16487804252
1858.16487803361
1858.16487799371
1858.16487801159
1858.16487803972
1858.16487800563
1858.16487801127
1858.16487802823
1858.16487802878
1858.16487801548
1858.16487806014
1858.16487805981
1858.16487802568
1858.16487808919
1858.1648781286
1858.16487812359
1858.16487814214
1858.16487815964
1858.1648781639
1858.1648781676
1858.16487817375
1858.16487821254
1858.16487862602
1858.16488407143
1858.1649674409
1858.16613496438
1858.16712662025
1858.1906626519
1858.14742826808
1858.14429384253
1858.14406490727
1858.14387095496
1858.1438444524
1858.14384162123
1858.14384135948
1858.14384133881
1858.14384133767
1858.1438413378
1858.14384132712
1858.14384132794
1858.14384132763
1858.14384132885
1858.14384133689
1858.14384134168
1858.14384134211
1858.14384132734
1858.14384131781
1858.14384132812
1858.14384132716
1858.14384133211
1858.14384134458
1858.14384134181
1858.1438413381
1858.14384133719
1858.1438413386
1858.14384133384
1858.1438413393
1858.14384134437
1858.14384134157
1858.14384133733
1858.14384134684
1858.1438413467
1858.14384134049
1858.14384135168
1858.14384135658
1858.14384135451
1858.14384135972
1858.14384136417
1858.14384136502
1858.14384136566
1858.14384136673
1858.14384137353
1858.14384144646
1858.14384241451
1858.14385728567
1858.14406318411
1858.14419708941
1858.14848982004
1858.1412039399
1858.14065981912
1858.14062058578
1858.14058770766
1858.14058288396
1858.14058233442
1858.14058228073
1858.14058227593
1858.14058227566
1858.14058227592
1858.14058227446
1858.14058227414
1858.14058227403
1858.14058227397
1858.14058227511
1858.14058227619
1858.14058227621
1858.14058227361
1858.14058227177
1858.14058227312
1858.14058227341
1858.14058227476
1858.14058227625
1858.14058227528
1858.14058227427
1858.14058227397
1858.14058227468
1858.14058227412
1858.1405822749
1858.140582276
1858.14058227504
1858.14058227406
1858.14058227577
1858.14058227567
1858.14058227454
1858.14058227636
1858.14058227691
1858.14058227638
1858.14058227713
1858.14058227799
1858.14058227839
1858.14058227846
1858.14058227861
1858.14058227975
1858.14058229217
1858.14058245815
1858.14058501389
1858.14062010782
1858.14063909175
1858.14139690158
1858.14019287602
1858.14010073962
1858.14009363172
1858.14008815881
1858.14008730621
1858.14008720314
1858.14008719249
1858.14008719146
1858.14008719136
1858.14008719133
1858.14008719108
1858.14008719087
1858.14008719072
1858.14008719068
1858.14008719084
1858.14008719088
1858.14008719079
1858.14008719035
1858.14008719002
1858.14008719008
1858.14008719004
1858.14008719011
1858.14008719019
1858.14008718995
1858.14008718973
1858.14008718959
1858.1400871896
1858.14008718941
1858.14008718944
1858.14008718948
1858.14008718926
1858.14008718905
1858.14008718919
1858.14008718909
1858.14008718887
1858.14008718898
1858.14008718891
1858.14008718884
1858.14008718892
1858.14008718899
1858.14008718899
1858.14008718892
1858.1400871889
1858.14008718909
1858.14008719114
1858.14008721881
1858.14008764579
1858.14009347822
1858.14009653264
1858.1402268527
1858.14003112041
1858.14001579819
1858.14001428101
1858.14001336793
1858.14001321994
1858.14001320107
1858.14001319898
1858.14001319872
1858.14001319864
1858.14001319857
1858.14001319846
1858.14001319835
1858.14001319824
1858.14001319814
1858.14001319806
1858.14001319796
1858.14001319784
1858.14001319767
1858.14001319751
1858.1400131974
1858.14001319728
1858.14001319717
1858.14001319706
1858.14001319691
1858.14001319676
1858.14001319663
1858.14001319652
1858.14001319638
1858.14001319627
1858.14001319617
1858.14001319604
1858.14001319591
1858.14001319583
1858.14001319572
1858.1400131956
1858.14001319553
1858.14001319544
1858.14001319535
1858.14001319529
1858.14001319523
1858.14001319516
1858.1400131951
1858.14001319504
1858.14001319503
1858.14001319535
1858.1400131999
1858.14001327037
1858.14001423427
1858.14001497666
1858.14003694506
1858.1400055722
1858.14000302385
1858.14000248922
1858.14000232151
1858.14000229536
1858.14000229189
1858.14000229145
1858.14000229134
1858.14000229127
1858.14000229118
1858.14000229109
1858.14000229099
1858.14000229087
1858.14000229076
1858.14000229064
1858.14000229051
1858.14000229038
1858.14000229023
1858.14000229009
1858.14000228995
1858.1400022898
1858.14000228966
1858.14000228952
1858.14000228937
1858.14000228923
1858.14000228909
1858.14000228895
1858.14000228881
1858.14000228868
1858.14000228855
1858.14000228842
1858.14000228829
1858.14000228818
1858.14000228806
1858.14000228795
1858.14000228784
1858.14000228774
1858.14000228765
1858.14000228756
1858.14000228748
1858.1400022874
1858.14000228733
1858.14000228727
1858.14000228722
1858.14000228724
1858.14000228802
1858.14000230031
1858.14000247351
1858.14000286384
1858.1400065436
1858.14000158183
1858.14000111939
1858.14000075676
1858.14000070913
1858.14000070361
1858.14000070288
1858.14000070275
1858.14000070267
1858.14000070259
1858.14000070251
1858.14000070241
1858.1400007023
1858.14000070218
1858.14000070206
1858.14000070193
1858.14000070179
1858.14000070165
1858.1400007015
1858.14000070135
1858.1400007012
1858.14000070104
1858.14000070089
1858.14000070074
1858.14000070058
1858.14000070043
1858.14000070028
1858.14000070013
1858.14000069999
1858.14000069984
1858.1400006997
1858.14000069957
1858.14000069944
1858.14000069931
1858.14000069919
1858.14000069907
1858.14000069895
1858.14000069885
1858.14000069874
1858.14000069865
1858.14000069856
1858.14000069847
1858.1400006984
1858.14000069833
1858.14000069827
1858.14000069824
1858.14000069841
1858.14000070141
1858.14000074878
1858.14000108342
1858.14000173457
1858.14000096528
1858.14000083818
1858.14000050507
1858.14000047654
1858.14000047446
1858.1400004742
1858.14000047413
1858.14000047406
1858.14000047398
1858.14000047389
1858.14000047378
1858.14000047367
1858.14000047355
1858.14000047342
1858.14000047328
1858.14000047313
1858.14000047298
1858.14000047283
1858.14000047267
1858.14000047251
1858.14000047235
1858.14000047219
1858.14000047202
1858.14000047186
1858.1400004717
1858.14000047154
1858.14000047139
1858.14000047123
1858.14000047108
1858.14000047094
1858.14000047079
1858.14000047066
1858.14000047052
1858.14000047039
1858.14000047027
1858.14000047015
1858.14000047003
1858.14000046993
1858.14000046982
1858.14000046973
1858.14000046964
1858.14000046956
1858.14000046948
1858.14000046942
1858.14000046937
1858.14000046944
1858.14000047097
1858.14000049867
1858.14000082443
1858.14000098213
1858.14000087157
1858.14000079762
1858.14000046923
1858.14000044369
1858.14000044216
1858.14000044199
1858.14000044193
1858.14000044185
1858.14000044177
1858.14000044168
1858.14000044157
1858.14000044145
1858.14000044132
1858.14000044119
1858.14000044104
1858.14000044089
1858.14000044073
1858.14000044057
1858.14000044041
1858.14000044024
1858.14000044007
1858.1400004399
1858.14000043973
1858.14000043957
1858.1400004394
1858.14000043923
1858.14000043907
1858.14000043891
1858.14000043875
1858.1400004386
1858.14000043845
1858.14000043831
1858.14000043817
1858.14000043803
1858.1400004379
1858.14000043778
1858.14000043766
1858.14000043754
1858.14000043744
1858.14000043734
1858.14000043724
1858.14000043715
1858.14000043707
1858.140000437
1858.14000043695
1858.14000043699
1858.1400004383
1858.14000046297
1858.14000078746
1858.1400008659
1858.14000085813
1858.14000079246
1858.14000046455
1858.14000043945
1858.14000043802
1858.14000043786
1858.14000043779
1858.14000043772
1858.14000043764
1858.14000043754
1858.14000043743
1858.14000043731
1858.14000043717
1858.14000043703
1858.14000043688
1858.14000043672
1858.14000043656
1858.14000043639
1858.14000043622
1858.14000043605
1858.14000043587
1858.1400004357
1858.14000043552
1858.14000043535
1858.14000043517
1858.140000435
1858.14000043483
1858.14000043467
1858.1400004345
1858.14000043434
1858.14000043419
1858.14000043404
1858.14000043389
1858.14000043375
1858.14000043362
1858.14000043349
1858.14000043337
1858.14000043325
1858.14000043314
1858.14000043303
1858.14000043293
1858.14000043284
1858.14000043275
1858.14000043267
1858.14000043261
1858.14000043265
1858.14000043392
1858.14000045814
1858.14000078259
1858.14000084848
1858.14000085682
1858.14000079239
1858.14000046429
1858.14000043923
1858.14000043782
1858.14000043766
1858.1400004376
1858.14000043752
1858.14000043744
1858.14000043734
1858.14000043722
1858.1400004371
1858.14000043696
1858.14000043681
1858.14000043666
1858.14000043649
1858.14000043632
1858.14000043615
1858.14000043598
1858.1400004358
1858.14000043562
1858.14000043544
1858.14000043525
1858.14000043507
1858.1400004349
1858.14000043472
1858.14000043454
1858.14000043437
1858.1400004342
1858.14000043404
1858.14000043388
1858.14000043372
1858.14000043357
1858.14000043343
1858.14000043329
1858.14000043315
1858.14000043303
1858.1400004329
1858.14000043279
1858.14000043268
1858.14000043257
1858.14000043248
1858.14000043239
1858.1400004323
1858.14000043224
1858.14000043227
1858.14000043352
1858.14000045769
1858.14000078229
1858.14000084624
1858.14000085727
1858.14000079299
1858.1400004646
1858.14000043954
1858.14000043813
1858.14000043797
1858.14000043791
1858.14000043783
1858.14000043774
1858.14000043764
1858.14000043752
1858.14000043739
1858.14000043725
1858.1400004371
1858.14000043694
1858.14000043677
1858.1400004366
1858.14000043642
1858.14000043624
1858.14000043606
1858.14000043587
1858.14000043569
1858.1400004355
1858.14000043532
1858.14000043513
1858.14000043495
1858.14000043477
1858.14000043459
1858.14000043442
1858.14000043425
1858.14000043409
1858.14000043393
1858.14000043377
1858.14000043362
1858.14000043348
1858.14000043334
1858.14000043321
1858.14000043309
1858.14000043296
1858.14000043285
1858.14000043274
1858.14000043264
1858.14000043255
1858.14000043246
1858.14000043239
1858.14000043242
1858.14000043367
1858.14000045783
1858.14000078259
1858.14000084625
1858.14000085789
1858.14000079359
1858.14000046495
1858.14000043987
1858.14000043845
1858.1400004383
1858.14000043824
1858.14000043816
1858.14000043807
1858.14000043796
1858.14000043784
1858.14000043771
1858.14000043757
1858.14000043741
1858.14000043725
1858.14000043708
1858.1400004369
1858.14000043672
1858.14000043653
1858.14000043635
1858.14000043616
1858.14000043597
1858.14000043578
1858.14000043559
1858.1400004354
1858.14000043521
1858.14000043503
1858.14000043485
1858.14000043467
1858.1400004345
1858.14000043433
1858.14000043417
1858.14000043401
1858.14000043386
1858.14000043371
1858.14000043357
1858.14000043343
1858.1400004333
1858.14000043318
1858.14000043306
1858.14000043295
1858.14000043285
1858.14000043275
1858.14000043266
1858.14000043258
1858.14000043261
1858.14000043385
1858.14000045802
1858.14000078293
1858.14000084656
1858.14000085843
1858.14000079409
1858.14000046524
1858.14000044015
1858.14000043873
1858.14000043858
1858.14000043851
1858.14000043843
1858.14000043834
1858.14000043823
1858.14000043811
1858.14000043798
1858.14000043783
1858.14000043767
1858.14000043751
1858.14000043733
1858.14000043715
1858.14000043697
1858.14000043678
1858.14000043659
1858.14000043639
1858.1400004362
1858.14000043601
1858.14000043581
1858.14000043562
1858.14000043543
1858.14000043525
1858.14000043506
1858.14000043488
1858.14000043471
1858.14000043454
1858.14000043437
1858.14000043421
1858.14000043405
1858.1400004339
1858.14000043376
1858.14000043362
1858.14000043349
1858.14000043336
1858.14000043324
1858.14000043313
1858.14000043302
1858.14000043292
1858.14000043283
1858.14000043275
1858.14000043277
1858.14000043401
1858.14000045818
1858.1400007832
1858.14000084685
1858.14000085885
1858.14000079448
1858.14000046547
1858.14000044036
1858.14000043895
1858.14000043879
1858.14000043872
1858.14000043865
1858.14000043855
1858.14000043844
1858.14000043832
1858.14000043818
1858.14000043803
1858.14000043787
1858.1400004377
1858.14000043753
1858.14000043735
1858.14000043716
1858.14000043697
1858.14000043677
1858.14000043658
1858.14000043638
1858.14000043619
1858.14000043599
1858.1400004358
1858.1400004356
1858.14000043541
1858.14000043523
1858.14000043505
1858.14000043487
1858.14000043469
1858.14000043453
1858.14000043436
1858.1400004342
1858.14000043405
1858.14000043391
1858.14000043376
1858.14000043363
1858.1400004335
1858.14000043338
1858.14000043327
1858.14000043316
1858.14000043305
1858.14000043295
1858.14000043288
1858.14000043289
1858.14000043413
1858.14000045831
1858.14000078342
1858.14000084708
1858.14000085914
1858.14000079476
1858.14000046563
1858.14000044052
1858.1400004391
1858.14000043894
1858.14000043887
1858.1400004388
1858.1400004387
1858.14000043859
1858.14000043847
1858.14000043833
1858.14000043817
1858.14000043801
1858.14000043784
1858.14000043767
1858.14000043748
1858.14000043729
1858.1400004371
1858.1400004369
1858.14000043671
1858.14000043651
1858.14000043631
1858.14000043611
1858.14000043592
1858.14000043572
1858.14000043553
1858.14000043534
1858.14000043516
1858.14000043498
1858.1400004348
1858.14000043463
1858.14000043447
1858.14000043431
1858.14000043415
1858.14000043401
1858.14000043386
1858.14000043373
1858.1400004336
1858.14000043348
1858.14000043336
1858.14000043325
1858.14000043314
1858.14000043304
1858.14000043296
1858.14000043298
1858.14000043421
1858.14000045839
1858.14000078356
1858.14000084724
1858.14000085931
1858.14000079492
1858.14000046572
1858.1400004406
1858.14000043918
1858.14000043903
1858.14000043896
1858.14000043888
1858.14000043878
1858.14000043867
1858.14000043855
1858.14000043841
1858.14000043825
1858.14000043809
1858.14000043792
1858.14000043774
1858.14000043756
1858.14000043737
1858.14000043717
1858.14000043698
1858.14000043678
1858.14000043658
1858.14000043638
1858.14000043618
1858.14000043598
1858.14000043579
1858.1400004356
1858.14000043541
1858.14000043522
1858.14000043504
1858.14000043487
1858.14000043469
1858.14000043453
1858.14000043437
1858.14000043421
1858.14000043406
1858.14000043392
1858.14000043379
1858.14000043366
1858.14000043353
1858.14000043341
1858.1400004333
1858.14000043319
1858.14000043309
1858.14000043301
1858.14000043302
1858.14000043426
1858.14000045844
1858.14000078364
1858.14000084732
1858.14000085937
1858.14000079497
1858.14000046575
1858.14000044063
1858.14000043921
1858.14000043905
1858.14000043898
1858.1400004389
1858.1400004388
1858.14000043869
1858.14000043857
1858.14000043843
1858.14000043827
1858.14000043811
1858.14000043794
1858.14000043776
1858.14000043757
1858.14000043738
1858.14000043719
1858.14000043699
1858.1400004368
1858.1400004366
1858.1400004364
1858.1400004362
1858.140000436
1858.14000043581
1858.14000043561
1858.14000043542
1858.14000043524
1858.14000043506
1858.14000043488
1858.14000043471
1858.14000043454
1858.14000043438
1858.14000043423
1858.14000043408
1858.14000043393
1858.1400004338
1858.14000043367
1858.14000043354
1858.14000043342
1858.14000043331
1858.1400004332
1858.1400004331
1858.14000043302
1858.14000043303
1858.14000043426
1858.14000045845
1858.14000078365
1858.14000084733
1858.14000085931
1858.14000079491
1858.14000046572
1858.14000044059
1858.14000043917
1858.14000043902
1858.14000043894
1858.14000043886
1858.14000043876
1858.14000043865
1858.14000043852
1858.14000043838
1858.14000043823
1858.14000043807
1858.1400004379
1858.14000043772
1858.14000043753
1858.14000043734
1858.14000043715
1858.14000043696
1858.14000043676
1858.14000043656
1858.14000043636
1858.14000043616
1858.14000043597
1858.14000043577
1858.14000043558
1858.14000043539
1858.1400004352
1858.14000043502
1858.14000043485
1858.14000043467
1858.14000043451
1858.14000043435
1858.14000043419
1858.14000043404
1858.1400004339
1858.14000043377
1858.14000043363
1858.14000043351
1858.14000043339
1858.14000043328
1858.14000043317
1858.14000043307
1858.14000043298
1858.140000433
1858.14000043423
1858.14000045841
1858.14000078359
1858.14000084727
1858.14000085912
1858.14000079473
1858.14000046561
1858.14000044049
1858.14000043907
1858.14000043891
1858.14000043884
1858.14000043876
1858.14000043866
1858.14000043855
1858.14000043842
1858.14000043828
1858.14000043813
1858.14000043797
1858.1400004378
1858.14000043762
1858.14000043743
1858.14000043725
1858.14000043705
1858.14000043686
1858.14000043666
1858.14000043647
1858.14000043627
1858.14000043607
1858.14000043588
1858.14000043568
1858.14000043549
1858.1400004353
1858.14000043512
1858.14000043494
1858.14000043476
1858.14000043459
1858.14000043443
1858.14000043427
1858.14000043412
1858.14000043397
1858.14000043383
1858.14000043369
1858.14000043356
1858.14000043344
1858.14000043332
1858.1400004332
1858.1400004331
1858.140000433
1858.14000043291
1858.14000043293
1858.14000043416
1858.14000045834
1858.14000078346
1858.14000084713
1858.1400008588
1858.14000079444
1858.14000046544
1858.14000044033
1858.1400004389
1858.14000043875
1858.14000043867
1858.14000043859
1858.14000043849
1858.14000043838
1858.14000043825
1858.14000043811
1858.14000043796
1858.1400004378
1858.14000043763
1858.14000043746
1858.14000043728
1858.14000043709
1858.1400004369
1858.14000043671
1858.14000043651
1858.14000043632
1858.14000043612
1858.14000043593
1858.14000043573
1858.14000043554
1858.14000043535
1858.14000043517
1858.14000043498
1858.14000043481
1858.14000043463
1858.14000043446
1858.1400004343
1858.14000043414
1858.14000043399
1858.14000043384
1858.1400004337
1858.14000043357
1858.14000043344
1858.14000043332
1858.1400004332
1858.14000043309
1858.14000043298
1858.14000043288
1858.1400004328
1858.14000043282
1858.14000043405
1858.14000045822
1858.14000078327
1858.14000084693
1858.14000085837
1858.14000079404
1858.1400004652
1858.1400004401
1858.14000043868
1858.14000043852
1858.14000043844
1858.14000043836
1858.14000043826
1858.14000043815
1858.14000043802
1858.14000043789
1858.14000043774
1858.14000043758
1858.14000043741
1858.14000043724
1858.14000043706
1858.14000043687
1858.14000043669
1858.1400004365
1858.14000043631
1858.14000043611
1858.14000043592
1858.14000043573
1858.14000043554
1858.14000043535
1858.14000043516
1858.14000043498
1858.1400004348
1858.14000043462
1858.14000043445
1858.14000043429
1858.14000043413
1858.14000043397
1858.14000043382
1858.14000043368
1858.14000043354
1858.14000043341
1858.14000043328
1858.14000043316
1858.14000043304
1858.14000043293
1858.14000043283
1858.14000043273
1858.14000043265
1858.14000043267
1858.14000043391
1858.14000045807
1858.14000078301
1858.14000084665
1858.14000085783
1858.14000079353
1858.1400004649
1858.14000043982
1858.14000043839
1858.14000043823
1858.14000043815
1858.14000043807
1858.14000043797
1858.14000043786
1858.14000043773
1858.1400004376
1858.14000043745
1858.1400004373
1858.14000043713
1858.14000043696
1858.14000043678
1858.1400004366
1858.14000043642
1858.14000043623
1858.14000043605
1858.14000043586
1858.14000043567
1858.14000043548
1858.14000043529
1858.14000043511
1858.14000043492
1858.14000043474
1858.14000043457
1858.14000043439
1858.14000043423
1858.14000043406
1858.14000043391
1858.14000043375
1858.14000043361
1858.14000043346
1858.14000043333
1858.1400004332
1858.14000043307
1858.14000043296
1858.14000043284
1858.14000043274
1858.14000043263
1858.14000043254
1858.14000043246
1858.14000043248
1858.14000043372
1858.14000045788
1858.14000078268
1858.1400008463
1858.14000085716
1858.14000079291
1858.14000046454
1858.14000043947
1858.14000043804
1858.14000043788
1858.1400004378
1858.14000043772
1858.14000043762
1858.14000043751
1858.14000043739
1858.14000043725
1858.14000043711
1858.14000043696
1858.1400004368
1858.14000043663
1858.14000043646
1858.14000043628
1858.1400004361
1858.14000043592
1858.14000043573
1858.14000043555
1858.14000043536
1858.14000043518
1858.140000435
1858.14000043481
1858.14000043464
1858.14000043446
1858.14000043429
1858.14000043412
1858.14000043395
1858.14000043379
1858.14000043364
1858.14000043349
1858.14000043335
1858.14000043321
1858.14000043308
1858.14000043295
1858.14000043283
1858.14000043271
1858.1400004326
1858.1400004325
1858.1400004324
1858.14000043231
1858.14000043223
1858.14000043226
1858.1400004335
1858.14000045765
1858.14000078229
1858.14000084588
1858.14000085639
1858.14000079219
1858.14000046412
1858.14000043907
1858.14000043764
1858.14000043747
1858.14000043739
1858.14000043731
1858.14000043721
1858.1400004371
1858.14000043698
1858.14000043685
1858.14000043671
1858.14000043656
1858.1400004364
1858.14000043624
1858.14000043607
1858.1400004359
1858.14000043573
1858.14000043555
1858.14000043537
1858.14000043519
1858.14000043501
1858.14000043483
1858.14000043465
1858.14000043447
1858.1400004343
1858.14000043413
1858.14000043396
1858.1400004338
1858.14000043364
1858.14000043348
1858.14000043333
1858.14000043319
1858.14000043305
1858.14000043291
1858.14000043278
1858.14000043266
1858.14000043254
1858.14000043243
1858.14000043232
1858.14000043222
1858.14000043213
1858.14000043204
1858.14000043197
1858.140000432
1858.14000043324
1858.14000045738
1858.14000078184
1858.1400008454
1858.14000085551
1858.14000079137
1858.14000046364
1858.14000043861
1858.14000043718
1858.14000043701
1858.14000043693
1858.14000043684
1858.14000043675
1858.14000043664
1858.14000043652
1858.14000043639
1858.14000043625
1858.14000043611
1858.14000043596
1858.1400004358
1858.14000043564
1858.14000043547
1858.1400004353
1858.14000043513
1858.14000043495
1858.14000043478
1858.1400004346
1858.14000043443
1858.14000043426
1858.14000043409
1858.14000043392
1858.14000043375
1858.14000043359
1858.14000043343
1858.14000043327
1858.14000043312
1858.14000043298
1858.14000043284
1858.1400004327
1858.14000043257
1858.14000043245
1858.14000043233
1858.14000043221
1858.14000043211
1858.140000432
1858.14000043191
1858.14000043182
1858.14000043174
1858.14000043167
1858.1400004317
1858.14000043295
1858.14000045708
1858.14000078133
1858.14000084485
1858.14000085453
1858.14000079046
1858.1400004631
1858.1400004381
1858.14000043666
1858.14000043649
1858.14000043641
1858.14000043632
1858.14000043623
1858.14000043612
1858.140000436
1858.14000043588
1858.14000043575
1858.14000043561
1858.14000043546
1858.14000043531
1858.14000043515
1858.14000043499
1858.14000043482
1858.14000043466
1858.14000043449
1858.14000043432
1858.14000043415
1858.14000043398
1858.14000043382
1858.14000043365
1858.14000043349
1858.14000043333
1858.14000043317
1858.14000043302
1858.14000043287
1858.14000043272
1858.14000043258
1858.14000043245
1858.14000043232
1858.14000043219
1858.14000043207
1858.14000043196
1858.14000043185
1858.14000043175
1858.14000043165
1858.14000043156
1858.14000043147
1858.14000043139
1858.14000043133
1858.14000043137
1858.14000043263
1858.14000045675
1858.14000078076
1858.14000084424
1858.14000085345
1858.14000078945
1858.14000046251
1858.14000043753
1858.1400004361
1858.14000043592
1858.14000043584
1858.14000043575
1858.14000043565
1858.14000043555
1858.14000043544
1858.14000043532
1858.14000043519
1858.14000043505
1858.14000043491
1858.14000043477
1858.14000043461
1858.14000043446
1858.1400004343
1858.14000043414
1858.14000043398
1858.14000043382
1858.14000043366
1858.14000043349
1858.14000043333
1858.14000043318
1858.14000043302
1858.14000043287
1858.14000043271
1858.14000043257
1858.14000043242
1858.14000043228
1858.14000043215
1858.14000043202
1858.1400004319
1858.14000043177