/*--------------------------------*- C++ -*----------------------------------*\
  =========                 |
  \\      /  F ield         | OpenFOAM: The Open Source CFD Toolbox
   \\    /   O peration     | Website:  https://openfoam.org
    \\  /    A nd           | Version:  10
     \\/     M anipulation  |
\*---------------------------------------------------------------------------*/
FoamFile
{
    format      ascii;
    class       volScalarField;
    location    "0.6";
    object      k;
}
// * * * * * * * * * * * * * * * * * * * * * * * * * * * * * * * * * * * * * //

dimensions      [0 2 -2 0 0 0 0];

internalField   nonuniform List<scalar> 
2500
(
3.13642199820789e-05
3.31843667472928e-05
3.38484976154477e-05
3.39463146280837e-05
3.3957715161987e-05
3.39589703881176e-05
3.39591080316673e-05
3.39591248471725e-05
3.39591215995325e-05
3.39591272321056e-05
3.39591300307375e-05
3.39591211798812e-05
3.3959118960204e-05
3.39591171307576e-05
3.39591141690557e-05
3.39591111892275e-05
3.39591101115923e-05
3.39591091861537e-05
3.39591082896223e-05
3.3959107406042e-05
3.39591065473029e-05
3.39591057048084e-05
3.39591048947371e-05
3.39591041150838e-05
3.39591033727115e-05
3.39591026538143e-05
3.39591019770683e-05
3.39591013329337e-05
3.39591007282458e-05
3.39591001620376e-05
3.3959099637066e-05
3.39590991475485e-05
3.39590987033781e-05
3.39590982976792e-05
3.3959097942697e-05
3.39590976316788e-05
3.39590974139333e-05
3.39590971983662e-05
3.39590969920755e-05
3.39590968643763e-05
3.3959096690379e-05
3.39590957587403e-05
3.39590887131937e-05
3.395903543089e-05
3.39586442694211e-05
3.39558732620127e-05
3.39371014579672e-05
3.38168471764715e-05
3.31062234417319e-05
3.13747701707932e-05
4.4680878396411e-05
7.16248893781636e-05
9.27520772282823e-05
9.62202196133231e-05
9.66484053844094e-05
9.66969808409949e-05
9.67022528290347e-05
9.67027918780145e-05
9.67028415253723e-05
9.67029076863865e-05
9.67029403942759e-05
9.67029397790338e-05
9.67029350136889e-05
9.67028816839311e-05
9.67028165812471e-05
9.67027533668172e-05
9.6702736170868e-05
9.67027233581528e-05
9.67027111655941e-05
9.67026992305635e-05
9.67026876287713e-05
9.67026763166312e-05
9.67026654092751e-05
9.67026548667029e-05
9.67026447874978e-05
9.67026351289565e-05
9.67026259826878e-05
9.67026172954922e-05
9.67026091614144e-05
9.67026015268506e-05
9.67025944779861e-05
9.67025879806154e-05
9.6702582124529e-05
9.67025768814906e-05
9.67025723681881e-05
9.67025686636847e-05
9.67025667486024e-05
9.67025645489041e-05
9.67025623259675e-05
9.67025616144265e-05
9.67025586169262e-05
9.67025296114657e-05
9.67022949856112e-05
9.67005259387133e-05
9.66877129136671e-05
9.65986014785565e-05
9.60097114369243e-05
9.23687399833375e-05
7.1700028017082e-05
4.47727094437718e-05
4.86533261205521e-05
0.000130767441349047
0.000228115676071939
0.000245120621317406
0.000247423510360191
0.000247703222727695
0.000247735009509826
0.000247738440091537
0.000247738802911524
0.000247738958310429
0.000247738978414328
0.000247738909240186
0.000247738858687295
0.000247738800954031
0.000247738678804579
0.000247738578513849
0.000247738532597708
0.000247738496815484
0.000247738462903444
0.000247738429622456
0.00024773839708229
0.000247738365208505
0.000247738334268311
0.000247738304187866
0.000247738275213955
0.000247738247258289
0.00024773822054781
0.000247738194980496
0.000247738170771049
0.000247738147817259
0.000247738126329155
0.000247738106228668
0.000247738087740204
0.000247738070824261
0.000247738055757465
0.000247738042719638
0.000247738032652182
0.000247738023063048
0.000247738015486083
0.000247738008686005
0.000247737986685862
0.000247737827584928
0.000247736611046047
0.000247727568151949
0.000247662647750099
0.000247216550998887
0.000244330523550478
0.00022722454584987
0.000131687261219195
4.88894441903457e-05
4.9884064816027e-05
0.000154608938188043
0.000289265075384431
0.000313220145810129
0.000316707359884176
0.000317159247513016
0.000317213652733244
0.0003172198655556
0.000317220555891234
0.000317220724761639
0.000317220701565922
0.000317220628020142
0.000317220584990326
0.000317220532690569
0.000317220434900138
0.000317220358897889
0.000317220312696958
0.000317220273991572
0.000317220236968264
0.000317220200490796
0.000317220164708463
0.000317220129542683
0.000317220095298741
0.000317220061891055
0.000317220029605236
0.000317219998331116
0.00031721996832639
0.00031721993946492
0.000317219911979987
0.000317219885741144
0.000317219860974712
0.00031721983756344
0.000317219815741268
0.000317219795429268
0.000317219776890761
0.000317219760199948
0.000317219745821442
0.000317219732476716
0.000317219720841741
0.000317219708764881
0.000317219677377679
0.000317219479514683
0.000317217985228778
0.000317206706586456
0.000317123878670302
0.000316539508832654
0.000312651080389565
0.000289034362374284
0.000156164955921371
5.02211766660445e-05
5.02737334104201e-05
0.000163086500963534
0.000315587325019937
0.000343279626020937
0.000347509806488795
0.000348085536813255
0.000348158277598971
0.000348166992411661
0.000348168006857141
0.00034816816023815
0.000348168119316294
0.000348168071268568
0.000348168033291921
0.00034816799011796
0.000348167925310445
0.000348167870371236
0.000348167829312513
0.000348167792564333
0.000348167757068645
0.000348167722056017
0.00034816768773406
0.000348167654023994
0.000348167621241686
0.000348167589294804
0.000348167558473428
0.000348167528654892
0.000348167500096641
0.000348167472654023
0.000348167446557134
0.000348167421653514
0.000348167398160317
0.000348167375935639
0.000348167355196682
0.000348167335829116
0.000348167318060315
0.000348167301853311
0.000348167287478518
0.000348167274271361
0.000348167262345256
0.000348167249144937
0.000348167214918847
0.000348167004769211
0.000348165420179711
0.000348153364143019
0.000348063798690782
0.000347423114884496
0.000343095269355706
0.000316471655963685
0.000165397307199916
5.06818748438247e-05
5.03993555244492e-05
0.000165976333777017
0.000326282576476066
0.00035584059400204
0.000360491898760413
0.000361146464452412
0.000361232160711672
0.000361242814485454
0.000361244097036017
0.000361244245273283
0.000361244221532476
0.000361244184229696
0.000361244149480829
0.000361244112979921
0.0003612440672914
0.000361244025059277
0.000361243988694889
0.000361243954492554
0.000361243921168291
0.000361243888276534
0.000361243856077674
0.000361243824496507
0.000361243793850148
0.000361243764041072
0.000361243735355936
0.000361243707663473
0.00036124368121489
0.000361243655853782
0.000361243631801951
0.000361243608892874
0.000361243587331873
0.000361243566960649
0.000361243547979751
0.000361243530251377
0.000361243513973551
0.000361243499041612
0.000361243485636264
0.000361243473347301
0.00036124346201573
0.000361243448887284
0.000361243413879086
0.000361243199509646
0.000361241583850993
0.000361229252904143
0.000361137203053406
0.000360474810846932
0.000355969647899554
0.000328069974546996
0.000168813406394753
5.08458682854591e-05
5.04403935309638e-05
0.000166946210720715
0.000330458905381227
0.000360889437830028
0.000365761029990852
0.000366461285703566
0.000366555225223234
0.000366567221439003
0.000366568699261972
0.000366568863985366
0.000366568852204333
0.000366568821175817
0.000366568787771373
0.000366568754983011
0.000366568718614441
0.000366568683133311
0.000366568649960805
0.00036656861777668
0.000366568586223431
0.000366568555064395
0.000366568524596929
0.00036656849474974
0.000366568465838326
0.000366568437761854
0.000366568410802447
0.000366568384823775
0.000366568360071053
0.000366568336381345
0.000366568313969206
0.000366568292660376
0.000366568272651124
0.000366568253773701
0.000366568236216848
0.000366568219829441
0.000366568204790803
0.000366568190961716
0.000366568178479739
0.000366568167028788
0.000366568156332523
0.000366568143542023
0.000366568108440804
0.000366567892678171
0.000366566266494602
0.000366553841365616
0.000366460916116755
0.000365790613302658
0.000361218267371807
0.000332808371372334
0.00017007343875836
5.09049176767332e-05
5.04539261106094e-05
0.000167270319222679
0.000332043482057739
0.000362861026485935
0.000367840766552395
0.000368565631217764
0.000368664404551932
0.000368677252020406
0.000368678862817098
0.000368679044329627
0.000368679040333958
0.000368679012628437
0.00036867898042635
0.000368678949664531
0.000368678917625808
0.000368678885585778
0.00036867885439296
0.000368678823618475
0.000368678793333085
0.000368678763415034
0.000368678734182994
0.000368678705569005
0.00036867867788593
0.000368678651031538
0.000368678625283717
0.000368678600503973
0.000368678576932678
0.000368678554404091
0.0003686785331273
0.000368678512924712
0.00036867849398619
0.000368678476139661
0.000368678459566048
0.000368678444107938
0.000368678429933467
0.000368678416887955
0.000368678405088074
0.000368678394251065
0.000368678384053609
0.000368678371607168
0.000368678336643473
0.000368678120531025
0.000368676491012751
0.000368664035289472
0.000368570817660915
0.00036789778144007
0.000363301240250415
0.000334696113085721
0.000170538658938216
5.09262909967205e-05
5.04584177599866e-05
0.000167378679286389
0.000332631920174291
0.000363614063047133
0.000368644276336086
0.000369381643105186
0.000369483071937586
0.000369496422123135
0.000369498117076646
0.000369498311374538
0.000369498311949268
0.000369498286386062
0.000369498255243837
0.000369498225715391
0.000369498195798682
0.000369498165608958
0.000369498135701309
0.000369498105957426
0.000369498076629015
0.000369498047650932
0.000369498019351766
0.000369497991665711
0.000369497964902486
0.000369497938959436
0.000369497914110615
0.000369497890216954
0.00036949786751485
0.000369497845837851
0.000369497825390891
0.000369497805995445
0.000369497787836781
0.000369497770741406
0.000369497754884988
0.000369497740107764
0.000369497726571214
0.000369497714114823
0.000369497702845278
0.000369497692492748
0.000369497682717216
0.000369497670618652
0.000369497635913528
0.000369497419889653
0.000369495789541846
0.000369483324629787
0.000369390014870885
0.00036871608048173
0.000364111187479194
0.000335433808276876
0.000170710580958457
5.09340431118636e-05
5.04599141594366e-05
0.000167414973249009
0.000332846846889661
0.000363896692921268
0.00036894951783682
0.000369692941501114
0.000369795753522536
0.000369809383664262
0.000369811128835063
0.000369811331620362
0.00036981133491026
0.000369811310798089
0.000369811280544642
0.000369811251886383
0.000369811223167411
0.000369811194105139
0.000369811165116572
0.000369811136184299
0.000369811107630061
0.000369811079414755
0.000369811051869834
0.000369811024931145
0.000369810998904866
0.000369810973688887
0.000369810949553406
0.000369810926360141
0.000369810904341737
0.000369810883332525
0.000369810863533746
0.000369810844767545
0.000369810827215321
0.00036981081070399
0.000369810795405006
0.000369810781158606
0.000369810768121666
0.0003698107561326
0.00036981074529312
0.000369810735340548
0.000369810725930771
0.000369810714166559
0.000369810679765972
0.000369810464004241
0.000369808833671133
0.000369796366398765
0.000369703029563365
0.000369028814582913
0.000364421144362916
0.00033571771041941
0.000170774082060637
5.09368548084464e-05
5.04604114047891e-05
0.000167427134733365
0.00033292430715577
0.000364001265632149
0.000369063887262519
0.000369810132543917
0.000369913633861465
0.000369927412500309
0.000369929186075573
0.000369929394103777
0.000369929399107371
0.000369929376062809
0.000369929346597515
0.00036992931868197
0.000369929290827701
0.00036992926262279
0.000369929234421565
0.000369929206234828
0.000369929178407679
0.000369929150911886
0.000369929124077834
0.000369929097842357
0.000369929072507779
0.000369929047972763
0.000369929024503765
0.00036992900196357
0.000369928980581333
0.000369928960192672
0.000369928940995406
0.000369928922812975
0.000369928905823249
0.000369928889854264
0.000369928875073815
0.000369928861323088
0.000369928848755379
0.000369928837210114
0.000369928826786344
0.000369928817227348
0.000369928808190491
0.000369928796788327
0.000369928762749114
0.0003699285473592
0.00036992691736172
0.000369914449822785
0.000369821105839434
0.000369146807885611
0.000364538245010591
0.000335825604558985
0.00017079747886232
5.09378712709928e-05
5.04605747911188e-05
0.000167431199170464
0.000332951908365481
0.000364039492512745
0.000369106242813281
0.000369853760114155
0.000369957592339252
0.000369971446547858
0.000369973235458947
0.000369973446595502
0.00036997345276972
0.000369973430574958
0.000369973401829967
0.000369973374600287
0.000369973347480655
0.000369973320020857
0.000369973292547186
0.000369973265072582
0.000369973237946506
0.000369973211145145
0.000369973184995799
0.000369973159436324
0.000369973134764942
0.000369973110881542
0.000369973088048749
0.000369973066130982
0.000369973045353775
0.000369973025554599
0.000369973006927763
0.000369972989298517
0.000369972972841173
0.000369972957385358
0.000369972943095208
0.000369972929813397
0.000369972917689799
0.000369972906565912
0.000369972896538979
0.000369972887358339
0.000369972878685178
0.000369972867645736
0.00036997283398297
0.000369972619004038
0.000369970989448993
0.000369958522236643
0.00036986517677893
0.000369190855654811
0.000364582014196328
0.000335866169666141
0.000170806059642822
5.09382369453818e-05
5.04606265534229e-05
0.000167432554636945
0.000332961635108866
0.000364053308711669
0.000369121759025399
0.000369869833902805
0.000369973819916515
0.000369987711201676
0.000369989508060899
0.000369989721024597
0.000369989728084742
0.000369989706630102
0.000369989678580896
0.000369989652031697
0.000369989625621197
0.00036998959889292
0.00036998957216435
0.000369989545432594
0.0003699895190427
0.000369989492971976
0.000369989467543591
0.000369989442696106
0.000369989418723515
0.000369989395526878
0.000369989373364946
0.000369989352103752
0.000369989331965254
0.000369989312788769
0.00036998929476512
0.000369989277721372
0.000369989261828252
0.000369989246917002
0.000369989233148063
0.000369989220365658
0.000369989208716296
0.000369989198043843
0.000369989188444199
0.000369989179673003
0.000369989171396638
0.00036998916075719
0.000369989127515376
0.000369988913004017
0.000369987283972429
0.000369974817289403
0.000369881471870043
0.000369207144668521
0.000364598217671064
0.000335881267798116
0.000170809177848801
5.09383659554942e-05
5.04606509667661e-05
0.000167433008060991
0.000332965027846229
0.000364058246377533
0.000369127380317954
0.000369875692982464
0.000369979748270937
0.000369993657093111
0.000369995457880141
0.000369995671903189
0.000369995679643164
0.000369995658800094
0.000369995631363408
0.000369995605427506
0.000369995579655508
0.000369995553605913
0.000369995527614399
0.000369995501626456
0.000369995475974816
0.000369995450636654
0.00036999542593048
0.000369995401795775
0.000369995378522213
0.000369995356012361
0.000369995334521021
0.000369995313916142
0.000369995294415986
0.000369995275862031
0.000369995258441425
0.000369995241983312
0.000369995226654629
0.000369995212288383
0.000369995199041095
0.000369995186758631
0.000369995175583994
0.000369995165363592
0.00036999515619205
0.000369995147831775
0.000369995139955003
0.000369995129721343
0.000369995096911437
0.000369994882887594
0.000369993254413759
0.00036998078833083
0.000369887443339571
0.000369213114653058
0.000364604161416887
0.000335886831216489
0.000170810294359952
5.09384113300632e-05
5.04607912021682e-05
0.000167433120628661
0.000332966219142752
0.000364059992225648
0.000369129386256637
0.000369877795141374
0.000369981880064107
0.000369995796673283
0.000369997599173811
0.000369997813724585
0.000369997821890074
0.000369997801399557
0.000369997774347004
0.000369997748827458
0.000369997723510601
0.000369997698007762
0.00036999767275409
0.000369997647532968
0.000369997622646742
0.000369997598070231
0.000369997574116916
0.000369997550726916
0.00036999752818553
0.000369997506396668
0.000369997485611153
0.00036999746569882
0.000369997446874245
0.000369997428980957
0.000369997412202519
0.000369997396370032
0.000369997381646698
0.000369997367867182
0.000369997355184126
0.000369997343444957
0.000369997332789244
0.000369997323066057
0.000369997314369076
0.000369997306467851
0.000369997299041495
0.000369997289268494
0.000369997256951802
0.000369997043486489
0.000369995415655948
0.000369982950283021
0.000369889605943291
0.000369215277402651
0.000364606317449051
0.00033588886173324
0.000170810685188612
5.09384365852453e-05
5.04607916824878e-05
0.000167433081276286
0.000332966574323909
0.000364060562627803
0.000369130076612815
0.000369878527791799
0.00036998262560536
0.000369996545610651
0.000369998348858941
0.000369998563796941
0.000369998572487617
0.000369998552586368
0.000369998526181506
0.000369998501319449
0.000369998476679075
0.000369998451870968
0.000369998427326383
0.000369998402806028
0.000369998378620453
0.000369998354744527
0.000369998331486571
0.000369998308787509
0.000369998286928197
0.000369998265814127
0.000369998245692146
0.000369998226434253
0.000369998208251351
0.000369998190989399
0.000369998174828424
0.000369998159601879
0.000369998145469278
0.000369998132267406
0.000369998120145129
0.000369998108951978
0.000369998098824338
0.000369998089614597
0.000369998081416124
0.000369998074006765
0.000369998067073783
0.000369998057816767
0.00036999802606373
0.000369997813246803
0.000369996186175014
0.000369983721669582
0.000369890378285937
0.000369216051210033
0.000364607095679324
0.000335889627466085
0.000170810848316898
5.09386021975664e-05
5.04606427312262e-05
0.000167433073137352
0.000332966614276342
0.000364060709225791
0.000369130277879132
0.000369878748221089
0.000369982852366766
0.000369996774239156
0.000369998578191388
0.000369998793828448
0.00036999880349939
0.000369998784748026
0.000369998759533071
0.000369998735829713
0.000369998712341219
0.000369998688611548
0.000369998664950911
0.000369998641302041
0.000369998617979764
0.000369998594959509
0.000369998572544905
0.000369998550677737
0.00036999852963456
0.000369998509322363
0.000369998489984074
0.00036999847149354
0.000369998454057893
0.000369998437525049
0.000369998422071166
0.000369998407531329
0.000369998394060801
0.000369998381497533
0.000369998369985824
0.0003699983593761
0.000369998349800436
0.000369998341113145
0.000369998333405992
0.000369998326463728
0.000369998319980595
0.00036999831117621
0.000369998279903005
0.00036999806762982
0.000369996441188666
0.0003699839773739
0.00036989063455743
0.000369216307583215
0.000364607351578165
0.00033588987579611
0.000170810867773759
5.09385997350951e-05
5.04606385302982e-05
0.000167433053020541
0.00033296665910608
0.000364060736069935
0.000369130307288313
0.000369878785683296
0.000369982892713412
0.000369996815602114
0.000369998620100554
0.000369998836435792
0.000369998847051485
0.000369998829339688
0.000369998805222958
0.000369998782606672
0.000369998760202227
0.000369998737533947
0.000369998714873054
0.000369998692206782
0.000369998669850374
0.000369998647780414
0.000369998626296217
0.000369998605340958
0.000369998585187106
0.000369998565743488
0.000369998547249047
0.000369998529579712
0.000369998512938512
0.000369998497175285
0.000369998482461911
0.000369998468634669
0.000369998455843859
0.000369998443928007
0.00036999843302585
0.000369998422987928
0.000369998413940665
0.000369998405739108
0.000369998398471968
0.000369998391929796
0.000369998385812402
0.000369998377358573
0.000369998346444317
0.000369998134574694
0.000369996508599726
0.00036998404524448
0.000369890702401538
0.000369216372850062
0.000364607405855875
0.000335889912487788
0.000170810825316025
5.0938437430317e-05
5.04607768471945e-05
0.000167433045512306
0.000332966657562111
0.000364060707293777
0.000369130281863869
0.000369878762420541
0.000369982870295655
0.000369996793498619
0.000369998598207068
0.000369998814992685
0.000369998826320493
0.000369998809420441
0.00036999878622194
0.000369998764542399
0.000369998743087194
0.00036999872136958
0.000369998699642202
0.000369998677902287
0.000369998656461972
0.000369998635298214
0.000369998614705825
0.000369998594629114
0.000369998575336424
0.000369998556738238
0.000369998539069724
0.000369998522208765
0.00036999850635451
0.000369998491358754
0.000369998477389491
0.000369998464284115
0.000369998452188234
0.00036999844094112
0.000369998430676539
0.000369998421245611
0.000369998412769573
0.00036999840510456
0.000369998398337224
0.000369998392265105
0.00036999838659517
0.000369998378587449
0.000369998348144178
0.000369998136810953
0.000369996511466602
0.000369984048815018
0.000369890706555093
0.00036921637709425
0.00036460741192012
0.00033588997137251
0.000170810843785348
5.09384361018875e-05
5.04608469562259e-05
0.000167433159594813
0.000332966662613601
0.000364060680366835
0.000369130241787381
0.000369878721170075
0.000369982828975032
0.000369996752202942
0.000369998556983626
0.000369998774105913
0.000369998786034377
0.000369998769836615
0.000369998747483857
0.00036999872667525
0.000369998706103856
0.000369998685275733
0.000369998664431555
0.000369998643569651
0.000369998622997566
0.000369998602692739
0.000369998582945679
0.000369998563702157
0.000369998545226438
0.00036999852743098
0.000369998510547354
0.000369998494455835
0.000369998479351534
0.000369998465088604
0.000369998451831478
0.000369998439418329
0.000369998427989874
0.00036999841738633
0.000369998407736616
0.00036999839889315
0.000369998390971344
0.000369998383828253
0.000369998377548485
0.000369998371937709
0.000369998366710188
0.000369998359148391
0.000369998329181769
0.000369998118399022
0.000369996493711635
0.000369984031811103
0.000369890690230622
0.000369216360955405
0.000364607396353227
0.000335889987674432
0.000170810864713355
5.09385960731892e-05
5.04609310943717e-05
0.000167433278753214
0.000332966616378182
0.000364060622835635
0.000369130189376909
0.000369878669006552
0.000369982776789658
0.000369996700050554
0.000369998504965982
0.00036999872255899
0.000369998735240801
0.000369998719885502
0.00036999869842621
0.000369998678495786
0.000369998658810137
0.000369998638875526
0.000369998618923387
0.000369998598950417
0.000369998579258987
0.000369998559826624
0.000369998540939731
0.000369998522545431
0.000369998504903835
0.000369998487929167
0.000369998471849839
0.000369998456548686
0.000369998442216359
0.000369998428709524
0.000369998416190101
0.000369998404495414
0.000369998393761059
0.000369998383827959
0.00036999837482072
0.000369998366594341
0.000369998359256823
0.00036999835266536
0.000369998346902481
0.000369998341784317
0.000369998337031616
0.000369998329949305
0.000369998300494629
0.000369998090301674
0.000369996466316803
0.000369984005218579
0.000369890664351383
0.000369216335059816
0.000364607365970073
0.00033588991254753
0.000170810880130818
5.09386084171814e-05
5.04609833636665e-05
0.000167433113734381
0.000332966431447537
0.000364060546355983
0.000369130127990318
0.000369878610134772
0.000369982718291398
0.000369996641689956
0.000369998446862941
0.000369998665102579
0.000369998678723828
0.000369998664370937
0.00036999864386313
0.000369998624847366
0.000369998606081719
0.000369998587075381
0.000369998568051426
0.000369998549004313
0.00036999853023098
0.000369998511708882
0.000369998493720419
0.000369998476214468
0.000369998459446109
0.000369998443331435
0.000369998428095988
0.000369998413626408
0.000369998400107015
0.000369998387397785
0.000369998375660197
0.000369998364727313
0.000369998354728645
0.000369998345505806
0.000369998337179857
0.000369998329611996
0.000369998322897339
0.000369998316892736
0.000369998311677866
0.000369998307073574
0.0003699983028107
0.000369998296218273
0.00036999826728556
0.000369998057693187
0.000369996434422595
0.000369983974132372
0.000369890633926248
0.000369216304133641
0.000364607327886939
0.000335889802587368
0.000170810885420085
5.09385842972889e-05
5.04607458931754e-05
0.000167432844267523
0.000332966266359357
0.000364060458852991
0.000369130057744821
0.000369878543042359
0.000369982651680271
0.000369996575231861
0.000369998380677087
0.000369998599558805
0.000369998614109624
0.000369998600757077
0.000369998581247691
0.000369998563207873
0.000369998545428194
0.000369998527419358
0.000369998509395994
0.000369998491349793
0.000369998473572409
0.000369998456040175
0.000369998439031877
0.000369998422498659
0.000369998406688684
0.000369998391519281
0.000369998377214158
0.00036999836366636
0.000369998351049556
0.000369998339228525
0.000369998328368689
0.000369998318291003
0.00036999830911844
0.000369998300693063
0.000369998293127419
0.000369998286276984
0.000369998280238729
0.000369998274872777
0.00036999827025702
0.000369998266218787
0.000369998262497732
0.000369998256446184
0.00036999822808601
0.000369998019144931
0.000369996396639355
0.000369983937198119
0.000369890597612053
0.000369216266910374
0.000364607282613567
0.000335889716190326
0.000170810795528429
5.09387834478593e-05
5.0460601557881e-05
0.000167432702110631
0.00033296614444713
0.000364060380385028
0.000369129991774195
0.000369878479653583
0.000369982588693238
0.000369996512363615
0.000369998318029564
0.000369998537476622
0.000369998552874049
0.00036999854044219
0.000369998521886446
0.000369998504786595
0.000369998487956905
0.000369998470908257
0.00036999845384695
0.000369998436762896
0.000369998419944101
0.00036999840336454
0.000369998387300614
0.000369998371709064
0.000369998356826599
0.000369998342571616
0.000369998329167722
0.000369998316521781
0.000369998304786153
0.000369998293822462
0.000369998283782433
0.000369998274502487
0.000369998266101384
0.000369998258421475
0.00036999825156848
0.000369998245395214
0.000369998239995338
0.000369998235231493
0.00036999823118004
0.000369998227675407
0.000369998224465387
0.000369998218925512
0.000369998191111189
0.000369997982798565
0.000369996361040555
0.000369983902444101
0.000369890563527856
0.000369216232191087
0.000364607242198682
0.000335889653141757
0.00017081070772062
5.09388013856762e-05
5.04605844367225e-05
0.00016743262055166
0.000332966046308701
0.000364060305765676
0.000369129925692928
0.000369878415484876
0.000369982524812306
0.000369996448575996
0.000369998254434066
0.000369998474412555
0.00036999849061769
0.00036999847906472
0.000369998461446691
0.000369998445280079
0.000369998429397744
0.000369998413308244
0.000369998397209348
0.000369998381089875
0.000369998365238322
0.000369998349621761
0.000369998334515435
0.000369998319889482
0.000369998305958257
0.000369998292640522
0.000369998280150867
0.000369998268386383
0.00036999825751221
0.000369998247390685
0.000369998238165608
0.000369998229680004
0.000369998222048702
0.000369998215114087
0.000369998208975879
0.000369998203485179
0.000369998198730664
0.000369998194576709
0.000369998191098682
0.000369998188138356
0.000369998185450233
0.0003699981804316
0.000369998153175156
0.00036999794550757
0.00036999632451856
0.000369983866802774
0.00036989052866678
0.000369216197312758
0.000364607204410554
0.000335889604805218
0.000170810653740305
5.09385854681206e-05
5.04605779565609e-05
0.00016743256310981
0.000332965964169077
0.00036406023800804
0.000369129863768811
0.000369878354957869
0.000369982464489196
0.000369996388326229
0.000369998194352835
0.000369998414843773
0.000369998431822132
0.000369998421085293
0.000369998404369195
0.000369998389105085
0.000369998374142415
0.000369998358983839
0.000369998343818043
0.000369998328633569
0.000369998313729858
0.0003699982990565
0.00036999828487511
0.000369998271144682
0.000369998258093993
0.000369998245644357
0.000369998234004452
0.000369998223068906
0.0003699982130055
0.000369998203678481
0.000369998195226144
0.000369998187494688
0.000369998180594747
0.000369998174368797
0.00036999816891085
0.000369998164070532
0.000369998159930122
0.000369998156355872
0.000369998153423713
0.000369998150983731
0.000369998148791778
0.000369998144260542
0.000369998117530907
0.000369997910486384
0.000369996290248441
0.000369983833405062
0.000369890496082399
0.000369216164886109
0.000364607170373034
0.000335889565516496
0.000170810619149781
5.09384240144715e-05
5.04605718684085e-05
0.00016743250984308
0.000332965884940074
0.000364060169925832
0.000369129800569597
0.000369878292911132
0.000369982402598795
0.000369996326505191
0.000369998132699466
0.000369998353748399
0.000369998371513957
0.000369998361519752
0.000369998345703983
0.000369998331350105
0.000369998317326103
0.000369998303119941
0.000369998288909667
0.000369998274677981
0.000369998260700213
0.000369998246943547
0.000369998233665242
0.000369998220821431
0.000369998208644042
0.000369998197056875
0.000369998186264259
0.000369998176160823
0.000369998166913165
0.000369998158387264
0.000369998150717093
0.000369998143750657
0.000369998137594536
0.000369998132091196
0.000369998127329514
0.00036999812315706
0.000369998119646231
0.000369998116666746
0.000369998114301161
0.000369998112412125
0.000369998110740762
0.000369998106689355
0.000369998080481575
0.000369997874078227
0.000369996254612504
0.000369983798666326
0.000369890462193719
0.00036921613133182
0.000364607135698405
0.000335889528084241
0.000170810597288973
5.09384107024097e-05
5.04605665161475e-05
0.00016743246178312
0.000332965811025688
0.000364060105842881
0.000369129740691721
0.000369878234054719
0.000369982343888359
0.000369996267864377
0.000369998074216131
0.000369998295968746
0.000369998314582898
0.000369998305090493
0.00036999829014665
0.000369998276667113
0.000369998263515396
0.000369998250192185
0.000369998236867152
0.000369998223518366
0.00036999821040929
0.000369998197513831
0.000369998185085537
0.000369998173080616
0.000369998161729965
0.000369998150959736
0.000369998140970559
0.000369998131658299
0.000369998123186878
0.000369998115424198
0.000369998108500507
0.000369998102265925
0.000369998096823702
0.000369998092016493
0.000369998087929502
0.000369998084407721
0.000369998081500598
0.000369998079086618
0.000369998077276176
0.000369998075962566
0.000369998074824958
0.00036999807115771
0.000369998045375317
0.000369997839588695
0.000369996220875943
0.000369983765812722
0.000369890430190399
0.000369216099639676
0.000364607103107741
0.000335889493397139
0.000170810578749137
5.09384089227373e-05
5.04605608935275e-05
0.000167432414360182
0.000332965736055276