/*--------------------------------*- C++ -*----------------------------------*\
  =========                 |
  \\      /  F ield         | OpenFOAM: The Open Source CFD Toolbox
   \\    /   O peration     | Website:  https://openfoam.org
    \\  /    A nd           | Version:  10
     \\/     M anipulation  |
\*---------------------------------------------------------------------------*/
FoamFile
{
    format      ascii;
    class       volScalarField;
    location    "0.6";
    object      nut;
}
// * * * * * * * * * * * * * * * * * * * * * * * * * * * * * * * * * * * * * //

dimensions      [0 2 -1 0 0 0 0];

internalField   nonuniform List<scalar> 
2500
(
2.44507995216983e-10
2.58459993601468e-10
2.6363951768417e-10
2.64401758382325e-10
2.64490574470489e-10
2.64500354067175e-10
2.64501427335337e-10
2.64501559754186e-10
2.64501536041696e-10
2.64501580607627e-10
2.645016035948e-10
2.6450153545157e-10
2.64501518652655e-10
2.64501505061345e-10
2.64501482590493e-10
2.64501460080078e-10
2.64501452015992e-10
2.64501445269647e-10
2.64501438801024e-10
2.64501432244932e-10
2.64501425915631e-10
2.64501420252479e-10
2.64501414771697e-10
2.64501408230478e-10
2.64501402002852e-10
2.64501397201752e-10
2.64501392054278e-10
2.64501387083659e-10
2.64501382958206e-10
2.64501378068449e-10
2.64501373889328e-10
2.64501370001814e-10
2.6450136643026e-10
2.64501363135035e-10
2.6450135976977e-10
2.64501357140306e-10
2.64501355190241e-10
2.64501353310472e-10
2.64501351273311e-10
2.64501349875924e-10
2.64501348035484e-10
2.64501340221022e-10
2.64501284685759e-10
2.64500869148722e-10
2.6449782109772e-10
2.64476235888193e-10
2.64330001013753e-10
2.63392950007572e-10
2.5785116431942e-10
2.44590157582054e-10
1.41208645245082e-09
5.0948220637304e-09
6.59871805371296e-09
6.84552267809878e-09
6.87598966683189e-09
6.87944579228057e-09
6.87982088346989e-09
6.87985923850381e-09
6.87986277432914e-09
6.87986748328524e-09
6.87986981297764e-09
6.87986977141912e-09
6.87986943359303e-09
6.87986564047891e-09
6.87986100986124e-09
6.87985651404592e-09
6.87985529165055e-09
6.87985438136891e-09
6.87985351508878e-09
6.87985266714243e-09
6.87985186046917e-09
6.87985106081257e-09
6.87985028713949e-09
6.87984953353874e-09
6.87984879722147e-09
6.87984813025965e-09
6.87984748000033e-09
6.87984686203427e-09
6.87984630084572e-09
6.87984575367785e-09
6.87984523707071e-09
6.87984477240729e-09
6.87984435632216e-09
6.87984396832974e-09
6.87984364419712e-09
6.87984337992341e-09
6.87984324296781e-09
6.87984308590417e-09
6.87984292702948e-09
6.87984287558001e-09
6.87984266108205e-09
6.87984059614421e-09
6.87982390193658e-09
6.87969803849043e-09
6.87878641943838e-09
6.87244622586028e-09
6.83054518100907e-09
6.57144353628983e-09
5.10015808561882e-09
1.41494896579167e-09
1.54174472727147e-09
3.7298741503606e-08
4.5186918641128e-06
4.85557658368042e-06
4.90119677163116e-06
4.90673773558385e-06
4.90736740908262e-06
4.9074353666254e-06
4.90744255432896e-06
4.90744563304328e-06
4.90744603180637e-06
4.90744466372856e-06
4.90744366272611e-06
4.90744251765446e-06
4.90744009824722e-06
4.90743811200782e-06
4.90743720282654e-06
4.90743649446515e-06
4.9074358231025e-06
4.90743516429401e-06
4.90743452415915e-06
4.9074338929659e-06
4.90743327898353e-06
4.90743268452426e-06
4.90743210937621e-06
4.90743155788654e-06
4.90743103050791e-06
4.90743052282736e-06
4.90743004472166e-06
4.90742958988196e-06
4.9074291609016e-06
4.90742876476761e-06
4.90742839986317e-06
4.90742806213879e-06
4.90742776192032e-06
4.9074275036394e-06
4.90742730423546e-06
4.90742711434863e-06
4.90742696431204e-06
4.90742682962453e-06
4.90742639378487e-06
4.90742324209547e-06
4.90739914350468e-06
4.90722001158237e-06
4.90593399043399e-06
4.89709710791779e-06
4.83992566530085e-06
4.50104189516868e-06
3.75611075320642e-08
1.54919737273342e-09
1.58170475875311e-09
4.41219658056973e-08
5.7326830572284e-06
6.20744105914892e-06
6.2765522559021e-06
6.28550790880831e-06
6.28658612515522e-06
6.28670925246536e-06
6.28672293401436e-06
6.28672628104946e-06
6.28672582175197e-06
6.28672436540907e-06
6.28672351338328e-06
6.28672247661293e-06
6.28672053853424e-06
6.28671903276402e-06
6.28671811762512e-06
6.28671735155823e-06
6.2867166183225e-06
6.28671589589748e-06
6.28671518798607e-06
6.28671449140075e-06
6.28671381301457e-06
6.28671315165085e-06
6.28671251189784e-06
6.28671189246908e-06
6.28671129847161e-06
6.28671072661022e-06
6.28671018307464e-06
6.28670966329549e-06
6.28670917210311e-06
6.28670870886039e-06
6.28670827666376e-06
6.28670787429386e-06
6.28670750725444e-06
6.28670717636406e-06
6.28670689130032e-06
6.28670662707033e-06
6.28670639671751e-06
6.28670615758136e-06
6.28670553572225e-06
6.28670161459644e-06
6.28667200070981e-06
6.28644847855584e-06
6.2848069777722e-06
6.27322578998008e-06
6.19616348040115e-06
5.72811165481474e-06
4.4566024770153e-08
1.5923829276847e-09
1.59425731992376e-09
4.65458637096706e-08
6.25490549272087e-06
6.80376738141514e-06
6.8876094549848e-06
6.89902039788996e-06
6.90046211511431e-06
6.90063484224057e-06
6.90065494878273e-06
6.90065798913204e-06
6.90065717853748e-06
6.90065622678025e-06
6.90065547457858e-06
6.90065461921517e-06
6.90065333505546e-06
6.90065224666141e-06
6.90065143340084e-06
6.90065070578623e-06
6.9006500027829e-06
6.9006493094043e-06
6.90064862976089e-06
6.90064796218377e-06
6.90064731292221e-06
6.90064668022878e-06
6.90064606991149e-06
6.90064547942659e-06
6.90064491394217e-06
6.9006443705959e-06
6.90064385396181e-06
6.9006433607051e-06
6.90064289543506e-06
6.90064245549712e-06
6.90064204478171e-06
6.90064166130809e-06
6.90064130958644e-06
6.90064098857577e-06
6.90064070387852e-06
6.90064044242318e-06
6.90064020634109e-06
6.90063994498076e-06
6.90063926686604e-06
6.90063510193932e-06
6.90060369571831e-06
6.90036474633143e-06
6.89858956691592e-06
6.88589126233723e-06
6.80011356490343e-06
6.27243302797779e-06
4.72053845368514e-08
1.60719712111387e-09
1.59827846688693e-09
4.73714668580262e-08
6.46698933802681e-06
7.05283622627666e-06
7.14502615446525e-06
7.1579997927383e-06
7.15969831162046e-06
7.15990947201195e-06
7.15993489276853e-06
7.15993783122583e-06
7.15993736110431e-06
7.1599366221943e-06
7.15993593393111e-06
7.15993521093294e-06
7.1599343058383e-06
7.1599334693062e-06
7.15993274909251e-06
7.15993207179442e-06
7.15993141187106e-06
7.15993076052268e-06
7.15993012290687e-06
7.15992949751719e-06
7.1599288906333e-06
7.15992830037003e-06
7.15992773241158e-06
7.15992718408552e-06
7.15992666039841e-06
7.15992615829022e-06
7.15992568210791e-06
7.15992522852148e-06
7.15992480165273e-06
7.15992439836742e-06
7.15992402259229e-06
7.15992367163809e-06
7.15992334943349e-06
7.15992305382422e-06
7.1599227884554e-06
7.15992254521899e-06
7.159922320936e-06
7.15992206101413e-06
7.15992136740571e-06
7.15991711879379e-06
7.15988509630331e-06
7.15964069447001e-06
7.15781624671244e-06
7.14468748877194e-06
7.05539414774947e-06
6.50241598523682e-06
4.81811995821804e-08
1.61243770160241e-09
1.59958662252456e-09
4.76484204296184e-08
6.54978317041887e-06
7.15292454283099e-06
7.24948081095168e-06
7.26336006705256e-06
7.26522197368287e-06
7.2654597421708e-06
7.2654890333467e-06
7.26549229857474e-06
7.26549206547851e-06
7.26549145091676e-06
7.26549078929334e-06
7.26549013989973e-06
7.26548941956333e-06
7.26548871684286e-06
7.26548805989669e-06
7.26548742256422e-06
7.26548679774022e-06
7.26548618072918e-06
7.26548557743217e-06
7.26548498642756e-06
7.26548441396401e-06
7.26548385805277e-06
7.26548332428467e-06
7.26548280993747e-06
7.26548231987583e-06
7.26548185088297e-06
7.26548140719209e-06
7.26548098535026e-06
7.26548058924992e-06
7.26548021556811e-06
7.26547986803586e-06
7.26547954366519e-06
7.26547924601011e-06
7.26547897229379e-06
7.26547872525568e-06
7.26547849863489e-06
7.26547828694821e-06
7.26547803372849e-06
7.2654773382792e-06
7.26547306204696e-06
7.26544083087021e-06
7.26519456169352e-06
7.26335275866744e-06
7.25006717815844e-06
7.15944205604717e-06
6.59635022848379e-06
4.85409686386155e-08
1.61431765734417e-09
1.60001692073445e-09
4.77409469477536e-08
6.58119278322641e-06
7.19200498348416e-06
7.29070479981842e-06
7.30507181669076e-06
7.30702953152862e-06
7.30728417217109e-06
7.30731609893441e-06
7.30731969692926e-06
7.30731961813557e-06
7.30731906943561e-06
7.3073184316411e-06
7.30731782241728e-06
7.3073171879062e-06
7.30731655338976e-06
7.30731593568154e-06
7.30731532627991e-06
7.30731472658147e-06
7.30731413416868e-06
7.30731355535825e-06
7.3073129887986e-06
7.30731244068781e-06
7.30731190900012e-06
7.30731139923977e-06
7.30731090865746e-06
7.30731044201649e-06
7.3073099960317e-06
7.30730957484295e-06
7.30730917492945e-06
7.30730880005345e-06
7.30730844680302e-06
7.30730811876112e-06
7.30730781280922e-06
7.30730753227857e-06
7.30730727409934e-06
7.30730704058625e-06
7.30730682613481e-06
7.30730662433458e-06
7.30730637793413e-06
7.3073056852107e-06
7.30730140204376e-06
7.30726910475969e-06
7.30702222909728e-06
7.30517463029866e-06
7.29183486792362e-06
7.20073015975522e-06
6.63376867328083e-06
4.86737703258292e-08
1.61499673599556e-09
1.60015952851867e-09
4.77718769011759e-08
6.59285613447049e-06
7.20693073132919e-06
7.30663094295029e-06
7.32124575539134e-06
7.32325610300595e-06
7.32352070764865e-06
7.32355430242348e-06
7.32355815382658e-06
7.32355816561687e-06
7.32355765937657e-06
7.32355704258663e-06
7.32355645780735e-06
7.32355586535455e-06
7.32355526750968e-06
7.32355467527173e-06
7.32355408629302e-06
7.32355350555897e-06
7.32355293177513e-06
7.32355237145212e-06
7.32355182328255e-06
7.32355129340245e-06
7.32355077977529e-06
7.32355028783015e-06
7.32354981480839e-06
7.32354936539338e-06
7.3235489362843e-06
7.32354853154083e-06
7.3235481476232e-06
7.32354778820214e-06
7.3235474498375e-06
7.32354713600945e-06
7.32354684355096e-06
7.32354657566153e-06
7.32354632915831e-06
7.32354610615574e-06
7.32354590130513e-06
7.32354570786639e-06
7.32354546835991e-06
7.3235447807603e-06
7.32354049934778e-06
7.32350818562001e-06
7.3232611278218e-06
7.3214117028922e-06
7.30805413802866e-06
7.21678389179638e-06
6.64839034325953e-06
4.87228416214533e-08
1.61524276702968e-09
1.60020698290358e-09
4.77822352186632e-08
6.59711597982883e-06
7.21253246234581e-06
7.31268084111378e-06
7.32741570268028e-06
7.32945346545471e-06
7.329723618901e-06
7.3297582089941e-06
7.32976222861786e-06
7.32976229422104e-06
7.32976181673824e-06
7.32976121756147e-06
7.32976065002674e-06
7.32976008131058e-06
7.32975950580909e-06
7.32975893178437e-06
7.32975835888838e-06
7.32975779349503e-06
7.3297572348264e-06
7.32975668944922e-06
7.32975615608922e-06
7.32975564081234e-06
7.32975514159239e-06
7.32975466378229e-06
7.3297542046391e-06
7.32975376877182e-06
7.32975335289501e-06
7.32975296099552e-06
7.32975258954658e-06
7.32975224214216e-06
7.32975191535032e-06
7.32975161256801e-06
7.32975133062775e-06
7.3297510726379e-06
7.32975083539481e-06
7.32975062091388e-06
7.32975042398818e-06
7.32975023779675e-06
7.32975000491533e-06
7.32974932334996e-06
7.32974504713173e-06
7.32971273369444e-06
7.32946562911606e-06
7.32761566754234e-06
7.3142525414344e-06
7.22292725118924e-06
6.65401729990043e-06
4.87409651606084e-08
1.61533193732405e-09
1.60022272399472e-09
4.7785705350715e-08
6.59865113846902e-06
7.2146049847554e-06
7.31494753509335e-06
7.32973832159152e-06
7.33178974636251e-06
7.33206284305517e-06
7.33209799612964e-06
7.33210211966671e-06
7.3321022192331e-06
7.33210176290765e-06
7.33210117934912e-06
7.33210062653182e-06
7.33210007495075e-06
7.33209951643867e-06
7.3320989580154e-06
7.33209839989209e-06
7.33209784890577e-06
7.33209730449395e-06
7.33209677320223e-06
7.33209625377592e-06
7.33209575220461e-06
7.3320952664773e-06
7.33209480187292e-06
7.33209435566964e-06
7.33209393240734e-06
7.33209352882606e-06
7.33209314884482e-06
7.33209278896257e-06
7.3320924527033e-06
7.33209213665727e-06
7.33209184414904e-06
7.33209157202979e-06
7.33209132333697e-06
7.33209109488711e-06
7.33209088864278e-06
7.33209069951508e-06
7.33209052071246e-06
7.33209029500458e-06
7.3320896205996e-06
7.33208535174911e-06
7.3320530449631e-06
7.33180593510488e-06
7.3299558318917e-06
7.31659106148704e-06
7.2252480803687e-06
6.65615566506272e-06
4.87476419648841e-08
1.61536414461911e-09
1.60022787309718e-09
4.77868644136038e-08
6.59919806711058e-06
7.21536250440311e-06
7.31578688404349e-06
7.33060288200972e-06
7.33266086541484e-06
7.33293545991311e-06
7.33297091694469e-06
7.33297510208735e-06
7.33297522485284e-06
7.33297478536738e-06
7.33297421608194e-06
7.33297367685486e-06
7.33297313983053e-06
7.33297259608262e-06
7.33297205207536e-06
7.33297150806229e-06
7.33297097096686e-06
7.33297044031432e-06
7.33296992258901e-06
7.3329694165566e-06
7.33296892812533e-06
7.3329684553086e-06
7.33296800330935e-06
7.33296756943822e-06
7.33296715816327e-06
7.33296676626131e-06
7.33296639758182e-06
7.33296604865964e-06
7.33296572294819e-06
7.33296541706934e-06
7.33296513427511e-06
7.33296487144619e-06
7.33296463155219e-06
7.33296441145076e-06
7.33296421306859e-06
7.33296403143696e-06
7.33296385984002e-06
7.33296364131871e-06
7.33296297437261e-06
7.33295871366583e-06
7.33292641564784e-06
7.33267931226621e-06
7.33082917986771e-06
7.3174639504952e-06
7.22611544965549e-06
6.65695954039628e-06
4.87500900249731e-08
1.61537570858255e-09
1.60022948161187e-09
4.77872502926127e-08
6.59939071746065e-06
7.21563619612972e-06
7.31609426841685e-06
7.33092131739414e-06
7.33298234888705e-06
7.33325767824483e-06
7.33329329280731e-06
7.33329751416147e-06
7.33329765448304e-06
7.33329722966347e-06
7.33329667416483e-06
7.33329614842099e-06
7.33329562544753e-06
7.33329509619406e-06
7.33329456695023e-06
7.33329403765579e-06
7.33329351514681e-06
7.33329299897069e-06
7.33329249553001e-06
7.33329200360439e-06
7.33329152901834e-06
7.33329106980839e-06
7.33329063110081e-06
7.3332902102382e-06
7.33328981161778e-06
7.33328943205296e-06
7.33328907532411e-06
7.33328873800209e-06
7.33328842346927e-06
7.33328812837952e-06
7.33328785591166e-06
7.33328760297708e-06
7.33328737247871e-06
7.33328716132113e-06
7.33328697140443e-06
7.33328679788477e-06
7.33328663414931e-06
7.3332864235531e-06
7.33328576494772e-06
7.33328151350603e-06
7.33324922586167e-06
7.33300213297477e-06
7.3311520013734e-06
7.31778665182081e-06
7.22643645746594e-06
6.65725865180243e-06
4.8750978989832e-08
1.61537976649262e-09
1.60023022271518e-09
4.77873787163672e-08
6.59945782587491e-06
7.21573391269273e-06
7.31620553256683e-06
7.33103729424086e-06
7.33309969873384e-06
7.33337537567195e-06
7.33341106808121e-06
7.3334153104288e-06
7.33341546422135e-06
7.33341505151951e-06
7.3334145081571e-06
7.33341399456461e-06
7.33341348424182e-06
7.3334129684352e-06
7.33341245379502e-06
7.33341193923807e-06
7.33341143135625e-06
7.33341092969442e-06
7.3334104405628e-06
7.33340996275931e-06
7.33340950202282e-06
7.3334090564198e-06
7.33340863099823e-06
7.3334082231387e-06
7.33340783716523e-06
7.333407469934e-06
7.33340712515266e-06
7.33340679943321e-06
7.33340649608294e-06
7.33340621179075e-06
7.33340594965768e-06
7.33340570662778e-06
7.33340548553448e-06
7.33340528333273e-06
7.33340510189739e-06
7.33340493651875e-06
7.33340478069999e-06
7.33340457814347e-06
7.33340392809577e-06
7.33339968631423e-06
7.33336740972303e-06
7.33312032873334e-06
7.33127020565375e-06
7.31790482694394e-06
7.22655411442242e-06
6.65736878235862e-06
4.87512966454833e-08
1.61538117198151e-09
1.60023463680528e-09
4.77874098555347e-08
6.59948130111705e-06
7.21576836654336e-06
7.31624513940277e-06
7.3310788078793e-06
7.33314179968669e-06
7.33341763095721e-06
7.33345335732492e-06
7.33345761012886e-06
7.3334577723516e-06
7.33345736663347e-06
7.33345683088039e-06
7.33345632553556e-06
7.33345582422894e-06
7.33345531925407e-06
7.33345481923287e-06
7.3334543198691e-06
7.33345382715248e-06
7.33345334058118e-06
7.33345286636579e-06
7.33345240331689e-06
7.33345195708664e-06
7.33345152576819e-06
7.33345111433067e-06
7.33345072019204e-06
7.3334503476033e-06
7.33344999346132e-06
7.33344966140264e-06
7.33344934807815e-06
7.33344905672105e-06
7.33344878405314e-06
7.33344853309862e-06
7.33344830083244e-06
7.33344809002e-06
7.33344789766904e-06
7.33344772563566e-06
7.33344756935173e-06
7.33344742245679e-06
7.33344722902735e-06
7.33344658875219e-06
7.33344235803811e-06
7.33341009419529e-06
7.3331630272809e-06
7.33131291715126e-06
7.31794754160809e-06
7.22659669783688e-06
6.65740888981603e-06
4.87514071825255e-08
1.61538193941677e-09
1.60023461892294e-09
4.77873976350084e-08
6.59948820433826e-06
7.21577952274968e-06
7.31625867105009e-06
7.33109317750153e-06
7.33315642476391e-06
7.33343232333818e-06
7.33346806452308e-06
7.33347232499853e-06
7.33347249762684e-06
7.333472103584e-06
7.33347158066379e-06
7.33347108834577e-06
7.3334706004421e-06
7.33347010923167e-06
7.33346962325927e-06
7.33346913777921e-06
7.3334686589439e-06
7.33346818625253e-06
7.33346772581344e-06
7.33346727645316e-06
7.33346684373588e-06
7.33346642578607e-06
7.3334660274941e-06
7.33346564632085e-06
7.33346528644452e-06
7.33346494481015e-06
7.33346462498427e-06
7.3334643236643e-06
7.33346404401048e-06
7.33346378278653e-06
7.33346354294188e-06
7.3334633214932e-06
7.33346312114274e-06
7.33346293896405e-06
7.33346277680705e-06
7.33346263026811e-06
7.33346249314824e-06
7.33346230994225e-06
7.3334616808356e-06
7.33345746296975e-06
7.33342521416349e-06
7.33317816444574e-06
7.33132807330215e-06
7.31796272706557e-06
7.22661197284845e-06
6.65742392891667e-06
4.87514527312069e-08
1.61538715791806e-09
1.60022986220507e-09
4.77873943232919e-08
6.59948885965717e-06
7.21578227906044e-06
7.31626250882189e-06
7.33109739478014e-06
7.33316076750203e-06
7.33343670307449e-06
7.33347245820797e-06
7.33347673253542e-06
7.33347692458892e-06
7.33347655333278e-06
7.33347605399214e-06
7.33347558463482e-06
7.33347511955642e-06
7.33347464971535e-06
7.33347418125725e-06
7.33347371304438e-06
7.33347325131386e-06
7.33347279557601e-06
7.33347235184622e-06
7.33347191896812e-06
7.33347150242068e-06
7.33347110035805e-06
7.33347071759296e-06
7.33347035162291e-06
7.33347000655142e-06
7.33346967936231e-06
7.33346937354543e-06
7.33346908583061e-06
7.33346881929378e-06
7.33346857072185e-06
7.3334683429737e-06
7.33346813308374e-06
7.33346794366886e-06
7.33346777184072e-06
7.33346761941748e-06
7.33346748213235e-06
7.3334673539247e-06
7.33346717968627e-06
7.33346656008657e-06
7.3334623529947e-06
7.33343011668547e-06
7.33318308065935e-06
7.33133300079328e-06
7.31796765684707e-06
7.22661689511915e-06
6.65742871296175e-06
4.8751457274418e-08
1.61538704636004e-09
1.60022969587656e-09
4.77873875930584e-08
6.59948961166095e-06
7.21578266183433e-06
7.31626294035566e-06
7.33109798561859e-06
7.33316141546609e-06
7.33343737117385e-06
7.33347313712949e-06
7.33347742529136e-06
7.33347763606602e-06
7.33347728540989e-06
7.33347680783152e-06
7.33347636001502e-06
7.33347591641727e-06
7.33347546760751e-06
7.33347501895868e-06
7.33347457021504e-06
7.33347412762207e-06
7.33347369071301e-06
7.33347326541778e-06
7.33347285060756e-06
7.33347245168037e-06
7.33347206682686e-06
7.3334717007807e-06
7.33347135108081e-06
7.3334710217493e-06
7.33347070980815e-06
7.33347041866242e-06
7.33347014506561e-06
7.33346989199533e-06
7.33346965624986e-06
7.3334694405779e-06
7.33346924201608e-06
7.33346906306933e-06
7.33346890086384e-06
7.33346875715728e-06
7.33346862779779e-06
7.33346850683509e-06
7.33346833954094e-06
7.33346772705209e-06
7.33346352795561e-06
7.33343130088383e-06
7.33318427396775e-06
7.33133419361276e-06
7.31796879885917e-06
7.22661782121398e-06
6.65742930228606e-06
4.87514441465309e-08
1.61538186581526e-09
1.60023404913848e-09
4.77873844615635e-08
6.59948944453927e-06
7.21578194221408e-06
7.31626228508771e-06
7.33109737288744e-06
7.33316081943828e-06
7.33343678136647e-06
7.33347255148066e-06
7.33347684856538e-06
7.33347707345018e-06
7.33347673887843e-06
7.33347627949458e-06
7.33347585023926e-06
7.33347542545003e-06
7.33347499547681e-06
7.33347456532436e-06
7.33347413493508e-06
7.3334737104929e-06
7.33347329153851e-06
7.33347288391258e-06
7.33347248650882e-06
7.33347210464352e-06
7.33347173654012e-06
7.33347138685756e-06
7.33347105317344e-06
7.33347073943303e-06
7.33347044269712e-06
7.33347016629375e-06
7.33346990699854e-06
7.33346966769611e-06
7.33346944519957e-06
7.33346924215905e-06
7.33346905562275e-06
7.33346888799273e-06
7.33346873641683e-06
7.33346860261186e-06
7.33346848256451e-06
7.33346837046637e-06
7.33346821201018e-06
7.33346760885262e-06
7.33346342038424e-06
7.33343120580882e-06
7.33318419284156e-06
7.33133412407768e-06
7.31796873139487e-06
7.22661779171385e-06
6.65743033149061e-06
4.87514484080108e-08
1.61538179022466e-09
1.6002362393657e-09
4.77874160335979e-08
6.59948940815307e-06
7.21578125925868e-06
7.31626133942535e-06
7.33109640364812e-06
7.33315984876364e-06
7.33343581117789e-06
7.33347158271982e-06
7.33347588647358e-06
7.33347612325927e-06
7.33347580260237e-06
7.33347535997624e-06
7.33347494797756e-06
7.33347454069989e-06
7.33347412835054e-06
7.33347371569709e-06
7.33347330270377e-06
7.33347289546356e-06
7.33347249352676e-06
7.33347210264875e-06
7.33347172175227e-06
7.3334713560728e-06
7.33347100387296e-06
7.33347066974042e-06
7.33347035130019e-06
7.33347005241756e-06
7.33346977020006e-06
7.33346950790517e-06
7.33346926232397e-06
7.33346903624411e-06
7.33346882649751e-06
7.3334686356382e-06
7.33346846074013e-06
7.33346830408994e-06
7.3334681628537e-06
7.33346803870767e-06
7.3334679277997e-06
7.33346782446597e-06
7.33346767484401e-06
7.33346708112985e-06
7.33346290356848e-06
7.33343070201148e-06
7.33318370393219e-06
7.33133364867048e-06
7.31796825994106e-06
7.22661733348614e-06
6.65743051669923e-06
4.87514533712755e-08
1.61538682984246e-09
1.6002388744926e-09
4.77874490544242e-08
6.59948835525661e-06
7.21577996972973e-06
7.3162601493114e-06
7.33109521812036e-06
7.33315866275796e-06
7.33343462581762e-06
7.33347040002619e-06
7.33347471310583e-06
7.33347496481868e-06
7.3334746608548e-06
7.33347423593216e-06
7.33347384133369e-06
7.33347345160578e-06
7.33347305695989e-06
7.33347266198049e-06
7.3334722665995e-06
7.33347187680743e-06
7.33347149215628e-06
7.33347111832016e-06
7.33347075424861e-06
7.33347040509477e-06
7.33347006915635e-06
7.33346975095838e-06
7.3334694481767e-06
7.33346916458816e-06
7.33346889735013e-06
7.3334686496703e-06
7.33346841832293e-06
7.33346820599425e-06
7.33346800953009e-06
7.33346783139909e-06
7.33346766872634e-06
7.33346752365156e-06
7.33346739334361e-06
7.33346727943758e-06
7.33346717828863e-06
7.33346708436153e-06
7.33346694423888e-06
7.33346636066761e-06
7.33346219479237e-06
7.33343000715649e-06
7.33318302498093e-06
7.33133298389199e-06
7.31796759511258e-06
7.22661658160256e-06
6.65742888976963e-06
4.87514567618085e-08
1.61538718784042e-09
1.60024049898252e-09
4.77874009677451e-08
6.5994845533911e-06
7.21577830464587e-06
7.316258781297e-06
7.33109389964181e-06
7.33315735163786e-06
7.33343331741754e-06
7.3334690967269e-06
7.33347342261894e-06
7.33347369294725e-06
7.33347340884646e-06
7.33347300277719e-06
7.3334726263018e-06
7.33347225480258e-06
7.33347187854902e-06
7.33347150195996e-06
7.33347112492304e-06
7.33347075332106e-06
7.33347038670471e-06
7.33347003066874e-06
7.33346968419751e-06
7.33346935234449e-06
7.3334690334444e-06
7.33346873196548e-06
7.33346844565894e-06
7.33346817817621e-06
7.33346792674029e-06
7.33346769455013e-06
7.33346747829556e-06
7.33346728054219e-06
7.33346709814958e-06
7.33346693351611e-06
7.33346678388973e-06
7.33346665115483e-06
7.33346653247339e-06
7.33346642942407e-06
7.33346633845546e-06
7.33346625423233e-06
7.33346612381498e-06
7.33346555058507e-06
7.33346139660971e-06
7.33342922312801e-06
7.33318225696893e-06
7.33133222901775e-06
7.31796683058156e-06
7.22661567710817e-06
6.65742657243982e-06
4.87514572616639e-08
1.61538638948076e-09
1.60023293512079e-09
4.77873230704046e-08
6.59948114481488e-06
7.21577642108322e-06
7.31625723770354e-06
7.3310924182349e-06
7.33315587972534e-06
7.33343184852966e-06
7.33346763323079e-06
7.33347197184497e-06
7.33347226059314e-06
7.33347199631446e-06
7.33347161002875e-06
7.33347125289111e-06
7.33347090092792e-06
7.33347054443877e-06
7.33347018767512e-06
7.33346983046977e-06
7.33346947860088e-06
7.33346913159693e-06
7.33346879498104e-06
7.33346846778257e-06
7.3334681549179e-06
7.33346785474628e-06
7.33346757169963e-06
7.33346730365613e-06
7.33346705405612e-06
7.33346682021783e-06
7.33346660541838e-06
7.33346640610761e-06
7.33346622472161e-06
7.33346605812881e-06
7.3334659085589e-06
7.3334657731464e-06
7.33346565381248e-06
7.33346554778403e-06
7.33346545660424e-06
7.33346537685026e-06
7.33346530336152e-06
7.33346518366014e-06
7.33346462177393e-06
7.3334604807035e-06
7.33342832238152e-06
7.33318137305117e-06
7.33133135742476e-06
7.31796594124439e-06
7.22661463010507e-06
6.65742472214086e-06
4.87514305957784e-08
1.61539267157133e-09
1.60022832480376e-09
4.77872815088709e-08
6.59947859200153e-06
7.2157747166014e-06
7.31625577884331e-06
7.33109101023924e-06
7.33315447964743e-06
7.33343045079762e-06
7.3334662398694e-06
7.33347058968469e-06
7.3334708952083e-06
7.33347064917288e-06
7.33347028178318e-06
7.33346994327012e-06
7.33346961012984e-06
7.33346927266546e-06
7.3334689349634e-06
7.33346859682127e-06
7.33346826394495e-06
7.33346793581616e-06
7.33346761791089e-06
7.3334673093694e-06
7.33346701488109e-06
7.33346673282644e-06
7.33346646763535e-06
7.33346621745992e-06
7.33346598531819e-06
7.33346576846582e-06
7.33346556990853e-06
7.33346538640271e-06
7.33346522030093e-06
7.33346506847738e-06
7.33346493302641e-06
7.33346481102985e-06
7.33346470434324e-06
7.33346461024341e-06
7.33346453024319e-06
7.33346446106044e-06
7.3334643976959e-06
7.33346428813158e-06
7.33346373706007e-06
7.33345960844184e-06
7.33342746493366e-06
7.33318053234865e-06
7.33133053003326e-06
7.31796510153901e-06
7.22661367940067e-06
6.65742333461691e-06
4.87514045246619e-08
1.61539320696514e-09
1.60022774875678e-09
4.77872572427196e-08
6.5994765103934e-06
7.21577308840237e-06
7.31625431779243e-06
7.33108958678737e-06
7.33315306185443e-06
7.33342903484556e-06
7.33346482772102e-06
7.3334691880653e-06
7.33346950959334e-06
7.33346928097271e-06
7.33346893216328e-06
7.33346861214144e-06
7.3334682977718e-06
7.33346797931156e-06
7.33346766067809e-06
7.3334673416474e-06
7.3334670279351e-06
7.33346671888618e-06
7.3334664199537e-06
7.33346613054344e-06
7.33346585490181e-06
7.33346559141653e-06
7.33346534433882e-06
7.33346511162712e-06
7.33346489655273e-06
7.33346469638556e-06
7.33346451397417e-06
7.3334643462059e-06
7.33346419535545e-06
7.33346405829766e-06
7.333463937008e-06
7.3334638285343e-06
7.33346373463339e-06
7.33346365261639e-06
7.33346358397653e-06
7.33346352557719e-06
7.3334634725521e-06
7.3334633733145e-06
7.33346283329604e-06
7.33345871745864e-06
7.33342658918906e-06
7.3331796740606e-06
7.33132968724494e-06
7.3179642586825e-06
7.22661278076038e-06
6.65742223869033e-06
4.87513881083211e-08
1.61538632623697e-09
1.60022751016164e-09
4.77872398598795e-08
6.59947474588559e-06
7.21577159620403e-06
7.31625293913697e-06
7.33108823551454e-06
7.33315171457794e-06
7.33342768901417e-06
7.33346348522585e-06
7.33346785572287e-06
7.33346819257184e-06
7.33346798012209e-06
7.33346764918369e-06
7.33346734704383e-06
7.33346705089606e-06
7.33346675088055e-06
7.33346645073473e-06
7.33346615022912e-06
7.33346585529636e-06
7.33346556493494e-06
7.3334652843278e-06
7.33346501265995e-06
7.33346475446364e-06
7.3334645081772e-06
7.33346427793469e-06
7.33346406164576e-06
7.33346386263409e-06
7.33346367820744e-06
7.3334635111053e-06
7.33346335827796e-06
7.33346322191694e-06
7.33346309889893e-06
7.33346299108625e-06
7.33346289549755e-06
7.3334628137628e-06
7.33346274323038e-06
7.33346268540466e-06
7.33346263731379e-06
7.33346259411825e-06
7.3334625045365e-06
7.33346197495529e-06
7.33345787146317e-06
7.33342575807673e-06
7.33317886024109e-06
7.3313288895808e-06
7.31796346441839e-06
7.22661195645757e-06
6.65742132209337e-06
4.87513772260536e-08
1.61538117269189e-09
1.60022728399757e-09
4.77872236686543e-08
6.59947303906516e-06
7.2157700975704e-06
7.31625153520649e-06
7.33108685411792e-06
7.33315033623496e-06
7.33342631203737e-06
7.33346211156806e-06
7.33346649312055e-06
7.33346684556742e-06
7.33346664783183e-06
7.33346633473274e-06
7.33346605062808e-06
7.33346577307882e-06
7.33346549193402e-06
7.33346521072028e-06
7.3334649290924e-06
7.33346465250513e-06
7.33346438030577e-06
7.33346411759094e-06
7.33346386348897e-06
7.33346362259459e-06
7.33346339339543e-06
7.33346317993938e-06
7.33346298013611e-06
7.33346279728593e-06
7.33346262873089e-06
7.33346247712486e-06
7.33346233945393e-06
7.33346221782931e-06
7.33346210912749e-06
7.33346201510902e-06
7.33346193275182e-06
7.33346186349e-06
7.33346180474069e-06
7.3334617581395e-06
7.33346172096366e-06
7.33346168808169e-06
7.33346160800584e-06
7.33346108876367e-06
7.33345699797584e-06
7.33342489989181e-06
7.33317801984039e-06
7.33132806606341e-06
7.31796264780244e-06
7.22661111952543e-06
6.65742044229061e-06
4.87513699769874e-08
1.61538071707601e-09
1.6002270811694e-09
4.77872089634725e-08
6.5994714375775e-06
7.21576867819832e-06
7.31625019710089e-06
7.33108553594942e-06
7.33314902091472e-06
7.33342499808843e-06
7.33346080073614e-06
7.33346519623165e-06
7.33346556549331e-06
7.33346537769851e-06
7.3334650818758e-06
7.33346481509504e-06
7.33346455482861e-06
7.33346429117777e-06
7.33346402750317e-06
7.33346376336787e-06
7.33346350399146e-06
7.3334632488545e-06
7.33346300298009e-06
7.33346276549809e-06
7.33346254098281e-06
7.33346232796856e-06
7.33346213042989e-06
7.33346194630105e-06
7.33346177882928e-06
7.33346162539478e-06
7.33346148857761e-06
7.33346136540581e-06
7.33346125792456e-06
7.33346116301416e-06
7.33346108236235e-06
7.33346101289597e-06
7.33346095559429e-06
7.33346090804815e-06
7.33346087244503e-06
7.33346084666944e-06
7.33346082436201e-06
7.33346075189585e-06
7.33346024108077e-06
7.33345616251267e-06
7.33342407934955e-06
7.33317721680009e-06
7.33132727991095e-06
7.31796186809138e-06
7.22661032389479e-06
6.6574196168945e-06
4.87513636757436e-08
1.61538062717956e-09
1.60022686976604e-09
4.77871944400614e-08
6.59946981515319e-06
7.21576722712995e-06