/*--------------------------------*- C++ -*----------------------------------*\
  =========                 |
  \\      /  F ield         | OpenFOAM: The Open Source CFD Toolbox
   \\    /   O peration     | Website:  https://openfoam.org
    \\  /    A nd           | Version:  10
     \\/     M anipulation  |
\*---------------------------------------------------------------------------*/
FoamFile
{
    format      ascii;
    class       volScalarField;
    location    "0.6";
    object      omega;
}
// * * * * * * * * * * * * * * * * * * * * * * * * * * * * * * * * * * * * * //

dimensions      [0 0 -1 0 0 0 0];

internalField   nonuniform List<scalar> 
2500
(
128274.823709734
128392.662573773
128389.317021877
128389.140964022
128389.13155968
128389.130169153
128389.129592914
128389.128891082
128389.128122791
128389.127785524
128389.12720832
128389.126822665
128389.126584938
128389.126265582
128389.125975645
128389.125636382
128389.12547648
128389.125252355
128389.125002714
128389.124844493
128389.124670107
128389.124233786
128389.123831525
128389.124059002
128389.12427521
128389.123887734
128389.123827747
128389.12380521
128389.123521565
128389.123754393
128389.123798182
128389.123834465
128389.123888825
128389.123954504
128389.124245924
128389.124346402
128389.124469734
128389.124567181
128389.124776097
128389.124971598
128389.125207117
128389.125478016
128389.125797778
128389.126055369
128389.126717512
128389.127847265
128389.139816942
128389.340623959
128392.763046517
128274.867970792
31641.7442564248
14058.3691603393
14056.0752063187
14055.9346799281
14055.9265018413
14055.9259801856
14055.9259415286
14055.9259318574
14055.9259243077
14055.925920278
14055.9259147409
14055.9259102206
14055.9259077662
14055.9259057274
14055.9259035376
14055.9259004005
14055.9258983583
14055.9258957617
14055.9258934085
14055.9258910306
14055.9258527663
14055.9258422681
14055.9258375202
14055.9258447855
14055.925884091
14055.9258428437
14055.9258419321
14055.9258417706
14055.9258060063
14055.9258142023
14055.9258450936
14055.9258500216
14055.9258489133
14055.9258795178
14055.9258857217
14055.9258871909
14055.925888638
14055.9258897974
14055.9258912792
14055.9258929695
14055.9258955083
14055.9258982922
14055.9259021718
14055.9259138548
14055.9260046863
14055.9268568834
14055.9368092403
14056.0805967889
14058.3932524088
31642.6320144495
31557.3163701731
3505.94781693652
50.482680149895
50.4822891973851
50.4822642078592
50.4822625695565
50.482262455286
50.4822624412667
50.4822624348375
50.4822624304444
50.4822624250313
50.4822624025188
50.4822623984387
50.4822624132212
50.4822624107144
50.4822624064614
50.4822624026688
50.4822623980761
50.482262393973
50.482262389318
50.4822623435283
50.4822623415473
50.4822623527598
50.4822623383334
50.4822623507359
50.4822623272572
50.4822623094857
50.4822623220277
50.4822623070321
50.4822623085699
50.4822623427619
50.482262321825
50.4822623081187
50.4822623352506
50.4822623533685
50.482262353527
50.4822623533041
50.4822623526483
50.4822623520823
50.48226235193
50.4822623523433
50.4822623530519
50.4822623555994
50.4822623740621
50.4822625483777
50.4822644009202
50.4822884578932
50.4826551589683
3505.9472382911
31557.9183458623
31538.1644646196
3504.126241086
50.4589338878055
50.4588191535844
50.4588103423122
50.4588097118705
50.4588096652237
50.4588096596324
50.4588096566034
50.458809653899
50.4588096506998
50.4588096410842
50.458809635102
50.4588096373989
50.4588096378305
50.4588096341916
50.4588096303563
50.4588096223136
50.4588096183201
50.4588096143814
50.4588096045247
50.4588096018343
50.4588095997055
50.4588095939697
50.458809593231
50.4588095902911
50.45880958515
50.4588095841916
50.4588095748426
50.4588095730283
50.458809575979
50.458809570158
50.458809567924
50.4588095665094
50.4588095636245
50.4588095645029
50.4588095653731
50.4588095634651
50.4588095616127
50.4588095599687
50.458809558548
50.4588095573303
50.4588095566243
50.4588095597225
50.4588096009774
50.4588100970712
50.458817198497
50.458926046132
3504.12577129739
31538.3792383817
31534.2653799604
3503.78074367218
50.4543714349004
50.4543448911295
50.4543425059169
50.4543423178914
50.4543423021465
50.4543422991231
50.4543422966768
50.4543422940952
50.4543422906404
50.4543422866638
50.4543422830689
50.4543422805817
50.4543422782513
50.454342274628
50.4543422708319
50.45434226549
50.4543422617051
50.4543422575509
50.4543422530592
50.4543422490159
50.4543422455028
50.454342241916
50.4543422378267
50.4543422340577
50.4543422301296
50.4543422260083
50.4543422215949
50.4543422191781
50.4543422165257
50.4543422124828
50.4543422100799
50.4543422072314
50.4543422039105
50.4543422023712
50.454342200838
50.4543421985774
50.4543421964415
50.4543421944772
50.4543421927008
50.454342191107
50.4543421897625
50.4543421893914
50.4543421977178
50.4543423136445
50.4543440460289
50.4543698676547
3503.78052890972
31534.3240589552
31533.5259584742
3503.71953383782
50.4535510144541
50.4535455787686
50.4535450209829
50.4535449719893
50.4535449664658
50.4535449641577
50.4535449618223
50.4535449592634
50.4535449562592
50.4535449531655
50.4535449498765
50.453544946652
50.4535449433994
50.4535449397524
50.4535449359737
50.4535449317495
50.4535449277285
50.4535449236891
50.4535449196551
50.4535449157389
50.4535449119797
50.4535449080409
50.4535449039042
50.4535449000676
50.4535448963368
50.4535448924304
50.453544888695
50.4535448853382
50.4535448819918
50.4535448786328
50.4535448756006
50.4535448725991
50.4535448696016
50.453544867171
50.4535448648595
50.4535448625097
50.4535448603171
50.4535448582966
50.4535448564538
50.4535448547906
50.4535448533251
50.4535448522089
50.4535448530513
50.4535448770052
50.4535452513452
50.4535506943651
3503.71945610892
31533.5397050872
31533.3929533344
3503.7092355939
50.4534114768403
50.453410443387
50.4534103239921
50.4534103115549
50.4534103088691
50.4534103067617
50.4534103044568
50.4534103019111
50.4534102990848
50.4534102960871
50.4534102928822
50.4534102895458
50.4534102860854
50.4534102824399
50.4534102786781
50.4534102747516
50.4534102707949
50.4534102668413
50.4534102628396
50.4534102588493
50.4534102549025
50.4534102509311
50.4534102469416
50.4534102430736
50.4534102392968
50.4534102355229
50.4534102318864
50.4534102283807
50.4534102249894
50.4534102216997
50.45341021858
50.4534102155795
50.4534102126995
50.4534102100617
50.4534102075757
50.4534102052139
50.4534102030186
50.4534102009951
50.4534101991466
50.4534101974765
50.4534101959917
50.4534101947261
50.453410193998
50.4534101979964
50.4534102719229
50.4534113327139
3503.70920746444
31533.3958252557
31533.3703392648
3503.7076119528
50.4533893770783
50.4533891896926
50.4533891650031
50.4533891611659
50.4533891591934
50.4533891571467
50.4533891548582
50.4533891523258
50.4533891495532
50.453389146577
50.453389143403
50.4533891400622
50.4533891365741
50.4533891329441
50.453389129202
50.4533891253556
50.4533891214456
50.453389117502
50.4533891135206
50.4533891095336
50.4533891055611
50.4533891016
50.4533890976746
50.4533890938149
50.4533890900273
50.453389086313
50.4533890827012
50.4533890791984
50.4533890758105
50.4533890725469
50.4533890694284
50.4533890664451
50.4533890636056
50.4533890609378
50.4533890584261
50.4533890560713
50.4533890538885
50.4533890518763
50.4533890500357
50.4533890483716
50.4533890468887
50.4533890455973
50.453389044561
50.4533890445643
50.4533890578069
50.4533892527476
3503.70759849928
31533.3708494012
31533.3670554072
3503.70741414745
50.4533867249337
50.453386691573
50.4533866859346
50.4533866839772
50.4533866821789
50.4533866801571
50.4533866778831
50.4533866753654
50.4533866726168
50.4533866696581
50.4533866665061
50.4533866631811
50.4533866597048
50.4533866560966
50.4533866523772
50.4533866485658
50.4533866446864
50.4533866407614
50.4533866368053
50.4533866328395
50.4533866288824
50.4533866249472
50.4533866210525
50.4533866172141
50.4533866134461
50.4533866097604
50.4533866061717
50.4533866026896
50.4533865993231
50.4533865960825
50.4533865929788
50.4533865900155
50.4533865871998
50.4533865845413
50.4533865820412
50.4533865797031
50.4533865775331
50.4533865755325
50.4533865737035
50.4533865720494
50.4533865705735
50.4533865692816
50.4533865681892
50.4533865674387
50.4533865692021
50.453386603113
3503.70740452237
31533.3670897829
31533.3670572271
3503.70744446921
50.4533871933379
50.4533871869623
50.4533871849692
50.4533871834082
50.4533871816586
50.4533871796533
50.4533871773943
50.4533871748928
50.4533871721636
50.453387169224
50.4533871660929
50.4533871627901
50.4533871593363
50.4533871557519
50.453387152058
50.4533871482749
50.4533871444236
50.4533871405243
50.4533871365958
50.453387132657
50.4533871287256
50.4533871248182
50.4533871209513
50.45338711714
50.4533871133986
50.4533871097397
50.453387106176
50.4533871027183
50.4533870993765
50.45338709616
50.4533870930779
50.4533870901366
50.4533870873429
50.4533870847031
50.4533870822213
50.4533870799015
50.4533870777475
50.4533870757617
50.4533870739464
50.4533870723041
50.4533870708376
50.4533870695514
50.4533870684517
50.4533870675653
50.4533870672607
50.4533870725634
3503.70743578655
31533.3670012295
31533.3676044933
3503.7075105319
50.4533881500232
50.453388148248
50.4533881469335
50.453388145461
50.4533881437324
50.4533881417423
50.4533881394993
50.4533881370153
50.4533881343057
50.4533881313874
50.4533881282792
50.4533881250007
50.4533881215725
50.453388118015
50.453388114349
50.453388110595
50.4533881067732
50.4533881029035
50.4533880990049
50.4533880950961
50.4533880911947
50.4533880873174
50.4533880834805
50.4533880796988
50.4533880759864
50.4533880723562
50.4533880688203
50.4533880653898
50.4533880620748
50.4533880588844
50.4533880558269
50.4533880529097
50.4533880501392
50.4533880475212
50.4533880450602
50.4533880427603
50.4533880406246
50.4533880386557
50.4533880368557
50.4533880352268
50.4533880337716
50.4533880324935
50.4533880313971
50.4533880304887
50.4533880298252
50.4533880302243
3503.70750210555
31533.3675324357
31533.3682405208
3503.70758209447
50.4533891814619
50.4533891804595
50.4533891792749
50.4533891778295
50.4533891761162
50.4533891741415
50.4533891719152
50.4533891694502
50.4533891667615
50.4533891638661
50.4533891607827
50.4533891575307
50.4533891541303
50.453389150602
50.4533891469663
50.4533891432433
50.4533891394533
50.4533891356157
50.4533891317496
50.4533891278733
50.4533891240045
50.4533891201598
50.4533891163552
50.4533891126053
50.4533891089243
50.453389105325
50.4533891018194
50.4533890984184
50.4533890951322
50.4533890919697
50.4533890889393
50.453389086048
50.4533890833025
50.4533890807083
50.4533890782699
50.4533890759914
50.4533890738757
50.4533890719254
50.4533890701423
50.4533890685285
50.4533890670861
50.4533890658182
50.4533890647285
50.4533890638199
50.4533890630974
50.4533890626812
3503.70757377727
31533.3681661456
31533.3688906888
3503.70765448347
50.4533902240273
50.453390223157
50.4533902220036
50.4533902205732
50.4533902188741
50.4533902169151
50.4533902147067
50.4533902122617
50.4533902095952
50.4533902067244
50.4533902036676
50.4533902004439
50.4533901970736
50.4533901935765
50.4533901899732
50.4533901862835
50.4533901825274
50.4533901787243
50.453390174893
50.4533901710517
50.4533901672178
50.4533901634079
50.4533901596378
50.4533901559221
50.4533901522748
50.4533901487086
50.4533901452354
50.4533901418661
50.4533901386107
50.453390135478
50.4533901324765
50.4533901296131
50.4533901268943
50.4533901243256
50.4533901219116
50.453390119656
50.453390117562
50.4533901156317
50.4533901138671
50.4533901122699
50.453390110842
50.4533901095861
50.4533901085055
50.4533901076024
50.4533901068737
50.453390106328
3503.70764624904
31533.3688164819
31533.3695430069
3503.70772698703
50.4533912681057
50.4533912672614
50.4533912661211
50.4533912647031
50.453391263018
50.4533912610751
50.4533912588853
50.4533912564614
50.4533912538186
50.4533912509738
50.4533912479452
50.4533912447517
50.4533912414132
50.4533912379494
50.4533912343805
50.4533912307262
50.4533912270062
50.4533912232397
50.4533912194453
50.4533912156411
50.4533912118443
50.4533912080713
50.4533912043378
50.4533912006584
50.4533911970468
50.4533911935158
50.453391190077
50.4533911867413
50.4533911835186
50.4533911804177
50.4533911774468
50.453391174613
50.4533911719226
50.453391169381
50.4533911669929
50.4533911647618
50.4533911626908
50.453391160782
50.4533911590374
50.4533911574583
50.4533911560465
50.4533911548043
50.4533911537348
50.4533911528399
50.4533911521158
50.4533911515547
3503.70771883412
31533.3694694357
31533.3701955786
3503.70779949836
50.4533923122705
50.4533923114341
50.4533923103032
50.4533923088968
50.4533923072257
50.4533923052994
50.4533923031289
50.4533923007272
50.4533922981093
50.4533922952919
50.453392292293
50.4533922891314
50.4533922858264
50.4533922823977
50.4533922788652
50.4533922752481
50.4533922715662
50.4533922678383
50.4533922640829
50.4533922603177
50.45339225656
50.453392252826
50.4533922491312
50.45339224549
50.4533922419161
50.453392238422
50.4533922350195
50.4533922317192
50.453392228531
50.4533922254636
50.4533922225251
50.4533922197225
50.4533922170621
50.4533922145492
50.4533922121883
50.4533922099832
50.4533922079367
50.4533922060509
50.4533922043275
50.453392202768
50.4533922013738
50.4533922001471
50.4533921990906
50.4533921982061
50.4533921974901
50.4533921969335
3503.70779143043
31533.3701227566
31533.3708481143
3503.70787200237
50.4533933563255
50.4533933554932
50.4533933543706
50.4533933529754
50.4533933513182
50.4533933494089
50.4533933472584
50.4533933448798
50.4533933422879
50.4533933394992
50.4533933365315
50.4533933334032
50.4533933301334
50.4533933267415
50.4533933232469
50.453393319669
50.4533933160269
50.4533933123394
50.4533933086248
50.4533933049005
50.4533933011838
50.4533932974905
50.4533932938362
50.453393290235
50.4533932867005
50.4533932832452
50.4533932798807
50.4533932766175
50.4533932734654
50.453393270433
50.4533932675284
50.4533932647585
50.4533932621295
50.4533932596466
50.4533932573145
50.4533932551365
50.4533932531157
50.4533932512542
50.4533932495535
50.4533932480149
50.4533932466398
50.4533932454301
50.4533932443883
50.4533932435161
50.4533932428103
50.4533932422631
3503.70786402347
31533.3707760912
31533.371500575
3503.70794449748
50.4533944002504
50.4533943994212
50.4533943983062
50.4533943969219
50.4533943952789
50.4533943933869
50.4533943912571
50.4533943889023
50.4533943863375
50.4533943835787
50.4533943806435
50.4533943775498
50.4533943743167
50.453394370963
50.4533943675081
50.4533943639708
50.4533943603702
50.4533943567248
50.4533943530525
50.4533943493709
50.4533943456968
50.453394342046
50.4533943384338
50.4533943348742
50.4533943313809
50.453394327966
50.453394324641
50.4533943214164
50.4533943183019
50.453394315306
50.4533943124367
50.4533943097009
50.4533943071045
50.4533943046531
50.4533943023508
50.4533943002013
50.4533942982075
50.4533942963714
50.4533942946946
50.4533942931782
50.4533942918236
50.4533942906323
50.4533942896068
50.4533942887486
50.4533942880548
50.4533942875191
3503.70793661159
31533.3714293892
31533.372152963
3503.70801698443
50.4533954440576
50.4533954432307
50.4533954421229
50.4533954407494
50.4533954391206
50.4533954372463
50.4533954351376
50.4533954328075
50.4533954302706
50.4533954275428
50.4533954246411
50.4533954215834
50.4533954183882
50.4533954150741
50.4533954116602
50.453395408165
50.4533954046073
50.4533954010054
50.4533953973771
50.4533953937396
50.4533953901096
50.4533953865026
50.453395382934
50.4533953794176
50.4533953759667
50.4533953725936
50.4533953693096
50.4533953661249
50.4533953630493
50.4533953600913
50.4533953572585
50.4533953545579
50.4533953519955
50.4533953495765
50.4533953473053
50.4533953451854
50.4533953432197
50.4533953414101
50.4533953397582
50.4533953382653
50.4533953369323
50.4533953357609
50.4533953347531
50.4533953339103
50.4533953332301
50.4533953327073
3503.70800919504
31533.3720826494
31533.3728052851
3503.708089464
50.4533964877576
50.4533964869327
50.4533964858319
50.4533964844693
50.4533964828547
50.4533964809984
50.4533964789115
50.4533964766067
50.4533964740985
50.4533964714025
50.4533964685354
50.4533964655147
50.4533964623586
50.4533964590853
50.4533964557136
50.4533964522618
50.4533964487483
50.4533964451913
50.4533964416082
50.4533964380161
50.4533964344315
50.4533964308698
50.453396427346
50.453396423874
50.453396420467
50.4533964171368
50.453396413895
50.4533964107516
50.4533964077161
50.4533964047969
50.4533964020019
50.4533963993377
50.4533963968102
50.4533963944248
50.4533963921856
50.4533963900962
50.4533963881595
50.4533963863775
50.4533963847516
50.4533963832831
50.453396381973
50.4533963808226
50.4533963798338
50.4533963790078
50.4533963783424
50.4533963778339
3503.70808177424
31533.3727358677
31533.3734575512
3503.70816193736
50.4533975313683
50.453397530545
50.453397529451
50.453397528099
50.4533975264989
50.4533975246609
50.4533975225962
50.4533975203173
50.4533975178385
50.4533975151751
50.4533975123435
50.4533975093607
50.4533975062446
50.4533975030132
50.4533974996847
50.4533974962773
50.4533974928092
50.453397489298
50.4533974857613
50.4533974822158
50.4533974786776
50.4533974751623
50.4533974716846
50.453397468258
50.4533974648958
50.4533974616098
50.4533974584111
50.4533974553099
50.4533974523156
50.4533974494363
50.4533974466799
50.453397444053
50.4533974415615
50.4533974392104
50.4533974370041
50.4533974349461
50.4533974330393
50.4533974312856
50.4533974296867
50.4533974282436
50.4533974269573
50.4533974258289
50.4533974248602
50.4533974240521
50.4533974234028
50.4533974229095
3503.70815435007
31533.3733890582
31533.3741097696
3503.70823440538
50.4533985749014
50.4533985740798
50.4533985729925
50.4533985716512
50.4533985700657
50.4533985682463
50.4533985662041
50.4533985639517
50.4533985615029
50.4533985588728
50.4533985560773
50.4533985531333
50.4533985500581
50.4533985468693
50.453398543585
50.4533985402229
50.453398536801
50.4533985333367
50.4533985298472
50.4533985263491
50.4533985228585
50.4533985193904
50.4533985159596
50.4533985125795
50.4533985092631
50.453398506022
50.4533985028675
50.4533984998094
50.453398496857
50.4533984940186
50.4533984913016
50.4533984887127
50.4533984862579
50.453398483942
50.4533984817694
50.4533984797435
50.4533984778673
50.4533984761428
50.4533984745715
50.4533984731546
50.4533984718929
50.4533984707876
50.4533984698399
50.4533984690507
50.4533984684183
50.4533984679411
3503.70822692278
31533.3740422197
31533.3747619506
3503.70830686926
50.4533996183755
50.4533996175552
50.4533996164744
50.453399615144
50.4533996135733
50.4533996117728
50.4533996097536
50.453399607528
50.4533996051097
50.4533996025134
50.4533995997547
50.45339959685
50.4533995938163
50.4533995906708
50.4533995874313
50.4533995841152
50.4533995807402
50.4533995773235
50.453399573882
50.4533995704322
50.4533995669897
50.4533995635696
50.4533995601864
50.4533995568535
50.4533995535836
50.4533995503883
50.4533995472785
50.4533995442641
50.4533995413544
50.4533995385574
50.4533995358805
50.4533995333304
50.4533995309127
50.4533995286326
50.4533995264942
50.4533995245011
50.4533995226561
50.4533995209613
50.4533995194184
50.4533995180282
50.453399516792
50.4533995157104
50.4533995147845
50.4533995140149
50.4533995134002
50.4533995129399
3503.70829949331
31533.3746953645
31533.3754141028
3503.70837932992
50.4534006618026
50.4534006609837
50.4534006599098
50.4534006585902
50.4534006570346
50.4534006552532
50.4534006532572
50.4534006510588
50.4534006486715
50.4534006461094
50.4534006433879
50.453400640523
50.4534006375313
50.4534006344296
50.4534006312355
50.4534006279659
50.4534006246384
50.4534006212698
50.4534006178769
50.4534006144757
50.4534006110819
50.4534006077105
50.4534006043755
50.4534006010903
50.4534005978674
50.4534005947183
50.4534005916538
50.4534005886838
50.4534005858172
50.4534005830621
50.4534005804259
50.4534005779149
50.453400575535
50.4534005732911
50.4534005711875
50.4534005692275
50.4534005674142
50.4534005657497
50.4534005642355
50.4534005628728
50.4534005616624
50.4534005606051
50.4534005597016
50.4534005589524
50.453400558356
50.453400557913
3503.70837206202
31533.3753484903
31533.3760662367
3503.70845178857
50.4534017052014
50.453401704384
50.4534017033169
50.4534017020084
50.453401700468
50.4534016987059
50.4534016967335
50.4534016945626
50.4534016922064
50.4534016896789
50.4534016869949
50.45340168417
50.4534016812206
50.4534016781631
50.4534016750146
50.453401671792
50.4534016685122
50.4534016651921
50.453401661848
50.4534016584959
50.4534016551513
50.4534016518287
50.4534016485422
50.453401645305
50.4534016421295
50.453401639027
50.4534016360083
50.4534016330829
50.4534016302598
50.4534016275469
50.4534016249516
50.4534016224801
50.4534016201382
50.4534016179308
50.4534016158622
50.4534016139358
50.4534016121544
50.4534016105204
50.4534016090353
50.4534016077004
50.4534016065163
50.4534016054837
50.4534016046032
50.4534016038746
50.453401603297
50.4534016028718
3503.70844462977
31533.3760016086
31533.3767183611
3503.70852424615
50.4534027485845
50.4534027477688
50.4534027467087
50.4534027454115
50.4534027438865
50.4534027421441
50.4534027401953
50.4534027380521
50.4534027357273
50.4534027332346
50.4534027305883
50.4534027278037
50.4534027248967
50.4534027218835
50.4534027187809
50.4534027156052
50.4534027123734
50.4534027091019
50.4534027058068
50.453402702504
50.4534026992086
50.453402695935
50.4534026926973
50.4534026895083
50.4534026863804
50.4534026833246
50.4534026803517
50.4534026774711
50.4534026746917
50.4534026720213
50.453402669467
50.4534026670352
50.4534026647315
50.4534026625609
50.4534026605274
50.4534026586346
50.4534026568854
50.4534026552822
50.4534026538265
50.4534026525195
50.453402651362
50.4534026503544
50.453402649497
50.4534026487895
50.4534026482308
50.4534026478235
3503.70851719707
31533.3766547237
31533.3773704865
3503.70859670388
50.4534037919704
50.4534037911565
50.4534037901037
50.4534037888181
50.4534037873087
50.453403785586
50.4534037836612
50.4534037815458
50.4534037792525
50.4534037767945
50.4534037741859
50.4534037714416
50.4534037685771
50.4534037656082
50.4534037625513
50.4534037594226
50.4534037562387
50.4534037530158
50.4534037497697
50.453403746516
50.4534037432698
50.4534037400453
50.4534037368563
50.4534037337154
50.453403730635
50.453403727626
50.4534037246989
50.4534037218631
50.4534037191272
50.4534037164992
50.453403713986
50.4534037115939
50.4534037093284
50.4534037071944
50.4534037051961
50.453403703337
50.4534037016201
50.4534037000475
50.4534036986212
50.4534036973423
50.4534036962115
50.4534036952289
50.4534036943947
50.4534036937083
50.4534036931688
50.4534036927797
3503.70858976466
31533.3773078382
31533.3780226216
3503.70866916269
50.4534048353716
50.45340483456
50.4534048335148
50.453404832241
50.4534048307476
50.4534048290448
50.453404827144
50.4534048250566
50.4534048227948
50.4534048203715
50.4534048178005
50.4534048150964
50.4534048122742
50.4534048093494
50.453404806338
50.4534048032561
50.45340480012
50.4534047969453
50.453404793748
50.4534047905433
50.4534047873461
50.4534047841703
50.4534047810298
50.4534047779369
50.4534047749038
50.4534047719413
50.4534047690599
50.4534047662686
50.4534047635763
50.4534047609905
50.4534047585182
50.4534047561655
50.4534047539382
50.4534047518407
50.4534047498775
50.4534047480519
50.453404746367
50.4534047448252
50.4534047434282
50.4534047421772
50.453404741073
50.4534047401155
50.4534047393045
50.4534047386391
50.4534047381186
50.4534047377474
3503.70866233302
31533.3779609632
31533.3786747768
3503.70874162377
50.4534058788064
50.4534058779974
50.4534058769602
50.4534058756986
50.4534058742213
50.4534058725388
50.4534058706621
50.4534058686025
50.453405866372
50.4534058639833
50.4534058614498
50.4534058587855
50.4534058560052
50.4534058531242
50.4534058501581
50.4534058471225
50.4534058440336
50.4534058409069
50.4534058377579
50.4534058346018
50.4534058314531
50.4534058283257
50.4534058252332
50.4534058221879
50.4534058192017
50.4534058162853
50.4534058134491
50.4534058107021
50.4534058080529
50.4534058055089
50.4534058030772
50.4534058007638
50.4534057985741
50.4534057965129
50.4534057945844
50.4534057927922
50.4534057911391
50.4534057896277
50.4534057882598
50.4534057870365
50.4534057859586
50.4534057850259
50.4534057842378
50.4534057835932
50.4534057830914
50.4534057827381
3503.70873490303
31533.3786141013
31533.3793269607
3503.70881408804
50.4534069222873
50.4534069214814
50.4534069204526
50.4534069192036
50.4534069177428
50.4534069160806
50.453406914228
50.4534069121963
50.4534069099971
50.4534069076426
50.4534069051461
50.4534069025213
50.4534068997825
50.4534068969447
50.4534068940232
50.4534068910336
50.4534068879913
50.4534068849119
50.4534068818107
50.4534068787025
50.4534068756018
50.4534068725223
50.4534068694772
50.4534068664789
50.453406863539
50.4534068606683
50.4534068578767
50.4534068551734
50.4534068525668
50.4534068500642
50.4534068476725
50.4534068453979
50.4534068432455
50.4534068412201
50.453406839326
50.4534068375666
50.453406835945
50.4534068344636
50.4534068331243
50.4534068319284
50.4534068308764
50.453406829968
50.4534068292025
50.4534068285783
50.4534068280948
50.4534068277587
3503.70880747507
31533.3792672588
31533.3799791833
3503.70888655666
50.4534079658318
50.4534079650296
50.4534079640097
50.4534079627737
50.4534079613297
50.453407959688
50.4534079578596
50.4534079558555
50.4534079536872
50.4534079513667
50.4534079489068
50.4534079463208
50.4534079436229
50.4534079408276
50.4534079379502
50.4534079350055
50.4534079320093
50.4534079289764
50.4534079259222
50.4534079228612
50.4534079198076
50.4534079167751
50.4534079137768
50.4534079108246
50.4534079079303
50.4534079051044
50.4534079023568
50.4534078996965
50.4534078971317
50.4534078946699
50.4534078923177
50.453407890081
50.4534078879653
50.4534078859752
50.4534078841149
50.4534078823878
50.453407880797
50.4534078793451
50.453407878034
50.4534078768649
50.4534078758382
50.4534078749537
50.45340787421
50.4534078736056
50.4534078731398
50.4534078728206
3503.70888004996
31533.3799204405
31533.3806314529
3503.70895903053
50.453409009452
50.4534090086542
50.4534090076439
50.4534090064214
50.4534090049945
50.4534090033735
50.4534090015692
50.4534089995926
50.4534089974549
50.4534089951678
50.4534089927438
50.453408990196
50.4534089875382
50.4534089847848
50.4534089819504
50.45340897905
50.4534089760987
50.4534089731115
50.4534089701033
50.4534089670885
50.4534089640812
50.4534089610948
50.4534089581422
50.4534089552354
50.4534089523857
50.4534089496038
50.4534089468993
50.4534089442811
50.4534089417574
50.4534089393354
50.4534089370218
50.4534089348225
50.4534089327427
50.4534089307871
50.4534089289598
50.4534089272644
50.4534089257039
50.4534089242808
50.4534089229971
50.4534089218541
50.4534089208521
50.4534089199906
50.4534089192681
50.4534089186826
50.4534089182338
50.4534089179305
3503.70895262809
31533.3805736516
31533.3812837791
3503.70903151074
50.4534100531648
50.453410052372
50.453410051372
50.4534100501635
50.4534100487541
50.4534100471539
50.4534100453737
50.4534100434243
50.4534100413167
50.4534100390624
50.4534100366737
50.4534100341632
50.4534100315447
50.453410028832
50.4534100260397
50.4534100231824
50.4534100202751
50.4534100173325
50.4534100143692
50.4534100113995
50.4534100084373
50.4534100054959
50.4534100025879
50.4534099997253
50.4534099969192
50.4534099941802
50.4534099915177
50.4534099889406
50.4534099864569
50.4534099840738
50.4534099817979
50.4534099796349
50.4534099775902
50.4534099756682
50.4534099738731
50.4534099722085
50.4534099706774
50.4534099692823
50.4534099680253
50.4534099669075
50.4534099659293
50.4534099650899
50.4534099643876
50.4534099638201
50.4534099633872
50.4534099630989
3503.70902521021
31533.3812268964
31533.3819361698
3503.70910399814
50.4534110969815
50.4534110961948
50.4534110952058
50.453411094012
50.4534110926205
50.4534110910412
50.453411089285
50.4534110873624
50.4534110852845
50.4534110830623
50.453411080708
50.453411078234
50.4534110756536
50.4534110729806
50.4534110702293
50.4534110674139
50.4534110645494
50.45341106165
50.4534110587304
50.4534110558046
50.4534110528862
50.4534110499884
50.4534110471239
50.4534110443042
50.4534110415405
50.4534110388431
50.4534110362215
50.4534110336843
50.4534110312395
50.4534110288942
50.4534110266549
50.4534110245272
50.4534110225164
50.4534110206271
50.4534110188633
50.4534110172285
50.4534110157259
50.4534110143579
50.4534110131266
50.4534110120331
50.4534110110777
50.4534110102594
50.453411009576
50.4534110090253
50.4534110086071
50.4534110083326
3503.70909779689
31533.3818801842
31533.3825886339
3503.70917649376
50.453412140918
50.4534121401382
50.4534121391611
50.4534121379826
50.4534121366094
50.4534121350513
50.4534121333189
50.4534121314228
50.4534121293738
50.4534121271829
50.4534121248621
50.4534121224234
50.4534121198801
50.4534121172455
50.4534121145338
50.4534121117591
50.4534121089358
50.4534121060784
50.453412103201
50.4534121003176
50.4534120974417
50.4534120945862
50.4534120917636
50.4534120889854
50.4534120862627
50.4534120836055
50.4534120810234
50.4534120785248
50.4534120761176
50.4534120738088
50.4534120716048
50.4534120695113
50.4534120675333
50.4534120656755
50.4534120639419
50.4534120623359
50.4534120608606
50.4534120595187
50.453412058312
50.4534120572417
50.4534120563079
50.4534120555094
50.4534120548438
50.4534120543083
50.4534120539033
50.4534120536414
3503.70917038869
31533.3825335179
31533.3832411785
3503.70924899838
50.4534131849847
50.4534131842132
50.4534131832489
50.4534131820866
50.4534131807321
50.4534131791952
50.4534131774864
50.4534131756164
50.4534131735956
50.4534131714353
50.4534131691468
50.4534131667424
50.4534131642348
50.4534131616373
50.4534131589638
50.4534131562282
50.4534131534448
50.4534131506277
50.453413147791
50.4534131449484
50.4534131421134
50.4534131392986
50.4534131365164
50.4534131337782
50.4534131310949
50.4534131284766
50.4534131259324
50.453413123471
50.4534131210999
50.4534131188262
50.4534131166562
50.4534131145955
50.4534131126491
50.4534131108215