/*--------------------------------*- C++ -*----------------------------------*\
  =========                 |
  \\      /  F ield         | OpenFOAM: The Open Source CFD Toolbox
   \\    /   O peration     | Website:  https://openfoam.org
    \\  /    A nd           | Version:  10
     \\/     M anipulation  |
\*---------------------------------------------------------------------------*/
FoamFile
{
    format      ascii;
    class       volScalarField;
    location    "0.6";
    object      p;
}
// * * * * * * * * * * * * * * * * * * * * * * * * * * * * * * * * * * * * * //

dimensions      [1 -1 -2 0 0 0 0];

internalField   nonuniform List<scalar> 
2500
(
100032.46891663
100032.468920302
100032.468923155
100032.46892628
100032.468929061
100032.468931453
100032.468933456
100032.46893511
100032.468936459
100032.468937545
100032.468938401
100032.468939056
100032.468939535
100032.468939859
100032.468940048
100032.468940115
100032.468940077
100032.468939945
100032.46893973
100032.468939441
100032.468939087
100032.468938676
100032.468938212
100032.468937702
100032.46893715
100032.468936559
100032.468935931
100032.468935268
100032.468934571
100032.468933838
100032.468933069
100032.468932262
100032.468931412
100032.468930515
100032.468929565
100032.468928553
100032.468927472
100032.468926308
100032.468925048
100032.468923674
100032.468922167
100032.4689205
100032.468918643
100032.468916558
100032.4689142
100032.468911529
100032.468908544
100032.468905285
100032.46890228
100032.468898377
100032.466574291
100032.466573614
100032.466575334
100032.466578686
100032.46658149
100032.466583883
100032.466585879
100032.466587524
100032.466588866
100032.466589944
100032.466590794
100032.466591445
100032.46659192
100032.466592241
100032.466592427
100032.466592492
100032.466592452
100032.466592318
100032.466592102
100032.466591812
100032.466591458
100032.466591046
100032.466590582
100032.466590072
100032.466589521
100032.46658893
100032.466588302
100032.46658764
100032.466586944
100032.466586212
100032.466585445
100032.466584639
100032.466583791
100032.466582896
100032.466581949
100032.46658094
100032.466579861
100032.466578701
100032.466577446
100032.466576077
100032.466574576
100032.466572917
100032.466571068
100032.466568992
100032.466566642
100032.466563973
100032.466560973
100032.466557508
100032.466555657
100032.466556186
100032.464220335
100032.464220985
100032.464226046
100032.464230082
100032.464233004
100032.464235402
100032.46423738
100032.464239003
100032.464240326
100032.464241388
100032.464242225
100032.464242865
100032.46424333
100032.464243644
100032.464243823
100032.464243883
100032.464243837
100032.4642437
100032.46424348
100032.464243188
100032.464242831
100032.464242418
100032.464241953
100032.464241442
100032.46424089
100032.464240299
100032.464239672
100032.464239011
100032.464238316
100032.464237587
100032.464236821
100032.464236018
100032.464235174
100032.464234283
100032.464233339
100032.464232336
100032.464231264
100032.464230112
100032.464228865
100032.464227508
100032.464226019
100032.464224376
100032.464222546
100032.464220492
100032.464218164
100032.464215496
100032.46421239
100032.464208261
100032.464203052
100032.464202426
100032.461863446
100032.461864816
100032.461869923
100032.461874085
100032.461877079
100032.461879456
100032.461881394
100032.46188298
100032.46188427
100032.461885306
100032.461886121
100032.461886742
100032.461887193
100032.461887493
100032.461887661
100032.461887712
100032.46188766
100032.461887516
100032.461887291
100032.461886994
100032.461886635
100032.461886218
100032.461885752
100032.46188524
100032.461884688
100032.461884097
100032.461883472
100032.461882812
100032.461882119
100032.461881393
100032.461880632
100032.461879833
100032.461878994
100032.46187811
100032.461877174
100032.461876181
100032.461875119
100032.461873979
100032.461872748
100032.461871409
100032.461869942
100032.461868325
100032.461866528
100032.461864513
100032.461862228
100032.461859592
100032.461856441
100032.461852233
100032.46184695
100032.461845522
100032.459504721
100032.459506178
100032.459510336
100032.459514235
100032.459517154
100032.459519461
100032.459521335
100032.459522868
100032.459524114
100032.459525115
100032.459525901
100032.459526498
100032.459526929
100032.459527213
100032.459527368
100032.459527407
100032.459527345
100032.459527194
100032.459526962
100032.459526661
100032.459526297
100032.459525878
100032.45952541
100032.459524898
100032.459524345
100032.459523756
100032.459523132
100032.459522475
100032.459521786
100032.459521064
100032.459520308
100032.459519516
100032.459518685
100032.45951781
100032.459516885
100032.459515904
100032.459514857
100032.459513734
100032.459512523
100032.459511208
100032.459509771
100032.45950819
100032.459506438
100032.459504477
100032.459502259
100032.459499699
100032.459496636
100032.459492706
100032.459488378
100032.459486809
100032.457145223
100032.457146514
100032.457149821
100032.457153263
100032.45715599
100032.457158181
100032.457159969
100032.457161435
100032.457162628
100032.457163586
100032.457164337
100032.457164906
100032.457165313
100032.457165578
100032.457165717
100032.457165743
100032.45716567
100032.45716551
100032.457165271
100032.457164964
100032.457164596
100032.457164175
100032.457163705
100032.457163192
100032.45716264
100032.457162052
100032.457161431
100032.457160777
100032.457160093
100032.457159377
100032.457158628
100032.457157845
100032.457157023
100032.45715616
100032.457155248
100032.457154282
100032.457153254
100032.457152152
100032.457150966
100032.457149681
100032.45714828
100032.457146743
100032.457145044
100032.457143152
100032.457141021
100032.45713858
100032.457135705
100032.457132223
100032.457128776
100032.457127353
100032.454785287
100032.454786357
100032.454788942
100032.454791895
100032.454794371
100032.45479641
100032.454798093
100032.45479948
100032.454800611
100032.454801519
100032.454802231
100032.454802767
100032.454803148
100032.454803391
100032.454803511
100032.454803522
100032.454803437
100032.454803267
100032.454803021
100032.454802708
100032.454802335
100032.454801911
100032.454801439
100032.454800926
100032.454800375
100032.45479979
100032.454799172
100032.454798523
100032.454797845
100032.454797136
100032.454796396
100032.454795622
100032.454794813
100032.454793963
100032.454793067
100032.454792119
100032.454791112
100032.454790035
100032.454788878
100032.454787628
100032.454786269
100032.454784782
100032.454783147
100032.454781335
100032.454779309
100032.454777017
100032.454774384
100032.454771378
100032.454768683
100032.454767478
100032.45242501
100032.452425872
100032.452427905
100032.452430406
100032.452432613
100032.452434481
100032.452436045
100032.452437343
100032.452438405
100032.452439258
100032.452439925
100032.452440425
100032.452440777
100032.452440995
100032.452441095
100032.45244109
100032.452440991
100032.45244081
100032.452440555
100032.452440236
100032.452439859
100032.452439431
100032.452438959
100032.452438445
100032.452437896
100032.452437313
100032.4524367
100032.452436057
100032.452435385
100032.452434685
100032.452433955
100032.452433193
100032.452432397
100032.452431563
100032.452430685
100032.452429758
100032.452428775
100032.452427727
100032.452426603
100032.452425391
100032.452424079
100032.452422649
100032.452421084
100032.452419362
100032.452417455
100032.452415331
100032.452412958
100032.452410391
100032.452408271
100032.452407277
100032.450064448
100032.450065136
100032.45006676
100032.450068872
100032.450070815
100032.450072504
100032.45007394
100032.450075142
100032.45007613
100032.450076923
100032.450077542
100032.450078003
100032.450078321
100032.450078513
100032.450078591
100032.450078568
100032.450078455
100032.450078262
100032.450077998
100032.450077672
100032.45007729
100032.450076859
100032.450076385
100032.450075873
100032.450075325
100032.450074746
100032.450074137
100032.450073501
100032.450072837
100032.450072147
100032.450071428
100032.450070679
100032.450069898
100032.450069082
100032.450068224
100032.450067321
100032.450066365
100032.450065348
100032.45006426
100032.450063092
100032.450061831
100032.450060463
100032.450058975
100032.450057349
100032.450055569
100032.45005362
100032.450051503
100032.450049318
100032.450047622
100032.450046806
100032.447703646
100032.447704194
100032.447705511
100032.447707296
100032.447708993
100032.447710505
100032.44771181
100032.447712912
100032.44771382
100032.447714551
100032.447715118
100032.447715537
100032.447715821
100032.447715984
100032.447716038
100032.447715995
100032.447715867
100032.447715661
100032.447715387
100032.447715054
100032.447714667
100032.447714234
100032.447713759
100032.447713247
100032.447712702
100032.447712127
100032.447711524
100032.447710895
100032.44771024
100032.44770956
100032.447708854
100032.44770812
100032.447707356
100032.447706559
100032.447705724
100032.447704846
100032.44770392
100032.447702936
100032.447701889
100032.447700767
100032.447699561
100032.447698259
100032.447696852
100032.447695328
100032.447693679
100032.447691904
100032.447690027
100032.447688165
100032.447686783
100032.447686111
100032.445342643
100032.445343081
100032.445344164
100032.445345676
100032.445347151
100032.445348492
100032.445349666
100032.445350665
100032.445351492
100032.445352156
100032.445352669
100032.445353043
100032.445353291
100032.445353423
100032.445353453
100032.445353389
100032.445353244
100032.445353025
100032.445352741
100032.4453524
100032.445352008
100032.445351572
100032.445351096
100032.445350585
100032.445350043
100032.445349472
100032.445348876
100032.445348255
100032.44534761
100032.445346942
100032.44534625
100032.445345532
100032.445344787
100032.445344011
100032.4453432
100032.44534235
100032.445341455
100032.445340509
100032.445339503
100032.445338431
100032.445337283
100032.445336051
100032.445334728
100032.445333308
100032.44533179
100032.445330183
100032.445328525
100032.445326933
100032.445325789
100032.445325231
100032.442981468
100032.442981818
100032.442982719
100032.442984002
100032.442985278
100032.442986458
100032.442987505
100032.442988401
100032.442989145
100032.442989741
100032.442990198
100032.442990526
100032.442990735
100032.442990835
100032.442990838
100032.442990753
100032.44299059
100032.442990358
100032.442990063
100032.442989714
100032.442989317
100032.442988878
100032.442988401
100032.442987892
100032.442987353
100032.442986787
100032.442986198
100032.442985586
100032.442984952
100032.442984297
100032.44298362
100032.44298292
100032.442982194
100032.442981441
100032.442980656
100032.442979836
100032.442978975
100032.442978067
100032.442977107
100032.442976087
100032.442975
100032.44297384
100032.442972603
100032.442971287
100032.442969897
100032.44296845
100032.442966987
100032.442965622
100032.442964664
100032.442964195
100032.440620148
100032.440620429
100032.440621182
100032.440622273
100032.440623373
100032.440624404
100032.440625327
100032.440626122
100032.440626782
100032.44062731
100032.440627709
100032.440627989
100032.440628158
100032.440628225
100032.4406282
100032.440628093
100032.440627912
100032.440627665
100032.440627359
100032.440627002
100032.440626599
100032.440626157
100032.44062568
100032.440625172
100032.440624637
100032.440624077
100032.440623495
100032.440622893
100032.440622271
100032.44062163
100032.440620969
100032.440620287
100032.440619583
100032.440618854
100032.440618097
100032.440617309
100032.440616483
100032.440615617
100032.440614703
100032.440613737
100032.440612713
100032.440611627
100032.440610477
100032.440609264
100032.440607998
100032.4406067
100032.440605412
100032.440604237
100032.440603427
100032.44060303
100032.438258702
100032.438258926
100032.438259559
100032.438260486
100032.438261429
100032.438262322
100032.438263127
100032.438263824
100032.438264401
100032.438264859
100032.4382652
100032.438265431
100032.438265559
100032.438265592
100032.438265539
100032.438265408
100032.438265208
100032.438264946
100032.438264628
100032.438264263
100032.438263855
100032.43826341
100032.438262932
100032.438262426
100032.438261895
100032.438261341
100032.438260768
100032.438260176
100032.438259567
100032.43825894
100032.438258297
100032.438257635
100032.438256954
100032.43825625
100032.438255523
100032.438254767
100032.438253979
100032.438253156
100032.438252291
100032.438251381
100032.438250421
100032.438249409
100032.438248346
100032.438247235
100032.438246087
100032.438244927
100032.438243796
100032.438242783
100032.438242094
100032.438241754
100032.435897148
100032.435897326
100032.435897858
100032.435898645
100032.435899448
100032.435900214
100032.435900908
100032.435901509
100032.435902005
100032.435902393
100032.435902676
100032.435902856
100032.435902942
100032.43590294
100032.435902858
100032.435902703
100032.435902483
100032.435902205
100032.435901876
100032.435901502
100032.435901089
100032.435900641
100032.435900163
100032.435899659
100032.435899132
100032.435898585
100032.43589802
100032.43589744
100032.435896844
100032.435896233
100032.435895608
100032.435894967
100032.435894309
100032.435893633
100032.435892936
100032.435892215
100032.435891466
100032.435890687
100032.435889872
100032.43588902
100032.435888125
100032.435887189
100032.435886211
100032.435885199
100032.435884165
100032.435883132
100032.43588214
100032.435881266
100032.435880677
100032.435880385
100032.433535499
100032.433535639
100032.433536085
100032.43353675
100032.433537428
100032.433538077
100032.433538666
100032.433539174
100032.43353959
100032.43353991
100032.433540133
100032.433540263
100032.433540306
100032.433540268
100032.433540156
100032.433539976
100032.433539737
100032.433539443
100032.433539102
100032.433538719
100032.4335383
100032.433537849
100032.433537371
100032.43353687
100032.433536347
100032.433535808
100032.433535252
100032.433534683
100032.433534101
100032.433533507
100032.433532901
100032.433532282
100032.433531649
100032.433531001
100032.433530336
100032.433529651
100032.433528943
100032.433528209
100032.433527446
100032.433526652
100032.433525824
100032.433524962
100032.433524069
100032.433523152
100032.433522226
100032.433521311
100032.433520443
100032.43351969
100032.433519187
100032.433518935
100032.431173771
100032.431173877
100032.431174249
100032.431174807
100032.431175373
100032.431175914
100032.431176404
100032.431176823
100032.431177161
100032.431177412
100032.431177576
100032.431177656
100032.431177656
100032.431177581
100032.431177438
100032.431177234
100032.431176973
100032.431176664
100032.43117631
100032.431175919
100032.431175494
100032.43117504
100032.431174562
100032.431174063
100032.431173546
100032.431173014
100032.431172468
100032.431171911
100032.431171344
100032.431170767
100032.43117018
100032.431169584
100032.431168977
100032.431168358
100032.431167726
100032.431167078
100032.431166412
100032.431165725
100032.431165015
100032.431164279
100032.431163518
100032.431162731
100032.431161921
100032.431161097
100032.431160272
100032.431159467
100032.431158712
100032.431158065
100032.431157636
100032.431157417
100032.428811971
100032.428812049
100032.428812355
100032.428812818
100032.428813282
100032.428813723
100032.428814119
100032.428814453
100032.428814714
100032.428814898
100032.428815004
100032.428815033
100032.428814989
100032.428814878
100032.428814704
100032.428814474
100032.428814193
100032.428813866
100032.4288135
100032.4288131
100032.428812669
100032.428812213
100032.428811735
100032.428811238
100032.428810727
100032.428810202
100032.428809667
100032.428809123
100032.428808571
100032.428808012
100032.428807446
100032.428806873
100032.428806293
100032.428805704
100032.428805106
100032.428804496
100032.428803872
100032.428803233
100032.428802577
100032.428801901
100032.428801206
100032.428800493
100032.428799765
100032.428799031
100032.428798303
100032.428797599
100032.428796947
100032.428796395
100032.42879603
100032.428795841
100032.426450113
100032.426450167
100032.426450414
100032.42645079
100032.426451161
100032.426451509
100032.426451817
100032.426452068
100032.426452255
100032.426452373
100032.426452421
100032.426452399
100032.426452312
100032.426452163
100032.426451958
100032.426451702
100032.426451399
100032.426451056
100032.426450677
100032.426450268
100032.426449831
100032.426449372
100032.426448894
100032.426448401
100032.426447895
100032.426447379
100032.426446854
100032.426446323
100032.426445787
100032.426445246
100032.426444701
100032.426444153
100032.4264436
100032.426443042
100032.426442479
100032.426441908
100032.426441328
100032.426440737
100032.426440135
100032.426439519
100032.426438891
100032.426438251
100032.426437604
100032.426436956
100032.42643632
100032.426435711
100032.426435153
100032.426434687
100032.426434379
100032.426434216
100032.424088204
100032.424088235
100032.42408843
100032.424088727
100032.424089011
100032.424089273
100032.424089495
100032.424089668
100032.424089783
100032.424089835
100032.424089825
100032.424089753
100032.424089622
100032.424089436
100032.424089199
100032.424088916
100032.424088592
100032.424088232
100032.424087841
100032.424087422
100032.42408698
100032.424086518
100032.42408604
100032.42408555
100032.42408505
100032.424084542
100032.424084028
100032.424083511
100032.424082991
100032.424082469
100032.424081946
100032.424081423
100032.424080898
100032.424080372
100032.424079844
100032.424079312
100032.424078777
100032.424078235
100032.424077688
100032.424077133
100032.424076571
100032.424076004
100032.424075435
100032.424074872
100032.424074324
100032.424073804
100032.424073333
100032.424072945
100032.42407269
100032.42407255
100032.421726255
100032.421726266
100032.421726412
100032.421726636
100032.42172684
100032.421727019
100032.421727161
100032.421727257
100032.421727301
100032.421727289
100032.421727222
100032.421727099
100032.421726924
100032.4217267
100032.421726432
100032.421726123
100032.421725777
100032.4217254
100032.421724996
100032.421724567
100032.421724119
100032.421723655
100032.421723178
100032.421722691
100032.421722197
100032.421721697
100032.421721195
100032.421720691
100032.421720188
100032.421719686
100032.421719185
100032.421718687
100032.421718191
100032.421717697
100032.421717205
100032.421716714
100032.421716223
100032.421715731
100032.421715239
100032.421714744
100032.421714249
100032.421713754
100032.421713263
100032.421712781
100032.421712317
100032.421711883
100032.421711493
100032.421711177
100032.42171097
100032.421710852
100032.419364272
100032.419364264
100032.419364364
100032.41936452
100032.419364648
100032.419364748
100032.419364813
100032.419364835
100032.419364809
100032.419364734
100032.41936461
100032.419364437
100032.419364218
100032.419363957
100032.419363656
100032.419363321
100032.419362953
100032.419362559
100032.419362141
100032.419361704
100032.41936125
100032.419360783
100032.419360307
100032.419359823
100032.419359335
100032.419358844
100032.419358353
100032.419357864
100032.419357377
100032.419356895
100032.419356417
100032.419355944
100032.419355478
100032.419355016
100032.419354561
100032.419354111
100032.419353665
100032.419353224
100032.419352786
100032.419352353
100032.419351923
100032.4193515
100032.419351085
100032.419350683
100032.419350301
100032.419349948
100032.419349635
100032.419349387
100032.419349226
100032.419349127
100032.417002265
100032.41700224
100032.417002297
100032.417002387
100032.417002443
100032.417002468
100032.417002457
100032.417002406
100032.417002313
100032.417002175
100032.417001994
100032.417001772
100032.417001509
100032.41700121
100032.417000877
100032.417000515
100032.417000126
100032.416999714
100032.416999283
100032.416998836
100032.416998377
100032.416997907
100032.416997431
100032.416996951
100032.416996469
100032.416995988
100032.416995509
100032.416995034
100032.416994564
100032.416994101
100032.416993647
100032.4169932
100032.416992763
100032.416992335
100032.416991916
100032.416991507
100032.416991107
100032.416990716
100032.416990334
100032.416989962
100032.416989598
100032.416989245
100032.416988905
100032.416988582
100032.416988279
100032.416988005
100032.416987766
100032.416987583
100032.416987464
100032.416987383
100032.414640239
100032.414640197
100032.414640212
100032.41464024
100032.414640226
100032.414640177
100032.414640093
100032.414639971
100032.41463981
100032.414639611
100032.414639374
100032.414639101
100032.414638795
100032.414638458
100032.414638093
100032.414637704
100032.414637293
100032.414636864
100032.41463642
100032.414635964
100032.414635498
100032.414635027
100032.414634551
100032.414634074
100032.414633599
100032.414633127
100032.414632659
100032.414632199
100032.414631747
100032.414631304
100032.414630873
100032.414630453
100032.414630045
100032.41462965
100032.414629269
100032.414628901
100032.414628547
100032.414628207
100032.414627881
100032.414627569
100032.414627271
100032.414626989
100032.414626724
100032.414626477
100032.414626253
100032.414626054
100032.414625888
100032.414625766
100032.414625688
100032.414625626
100032.412278204
100032.412278146
100032.412278121
100032.412278088
100032.412278005
100032.412277884
100032.412277728
100032.412277535
100032.412277308
100032.412277047
100032.412276754
100032.412276431
100032.412276082
100032.412275707
100032.41227531
100032.412274894
100032.412274461
100032.412274015
100032.412273557
100032.412273092
100032.41227262
100032.412272146
100032.412271671
100032.412271198
100032.412270729
100032.412270266
100032.412269811
100032.412269365
100032.41226893
100032.412268508
100032.4122681
100032.412267706
100032.412267329
100032.412266968
100032.412266624
100032.412266297
100032.41226599
100032.4122657
100032.41226543
100032.412265178
100032.412264947
100032.412264735
100032.412264543
100032.412264373
100032.412264226
100032.412264102
100032.412264006
100032.412263946
100032.412263908
100032.412263862
100032.409916166
100032.409916092
100032.409916026
100032.409915933
100032.409915782
100032.40991559
100032.409915362
100032.409915099
100032.409914805
100032.409914483
100032.409914134
100032.409913762
100032.409913369
100032.409912956
100032.409912527
100032.409912084
100032.40991163
100032.409911166
100032.409910695
100032.40991022
100032.409909743
100032.409909267
100032.409908792
100032.409908323
100032.40990786
100032.409907407
100032.409906963
100032.409906532
100032.409906115
100032.409905713
100032.409905329
100032.409904962
100032.409904614
100032.409904286
100032.40990398
100032.409903695
100032.409903434
100032.409903195
100032.409902981
100032.40990279
100032.409902624
100032.409902482
100032.409902364
100032.40990227
100032.4099022
100032.409902151
100032.409902124
100032.409902125
100032.409902126
100032.409902098
100032.407554135
100032.407554045
100032.40755394
100032.407553785
100032.407553566
100032.407553303
100032.407553002
100032.407552669
100032.407552309
100032.407551925
100032.407551521
100032.407551099
100032.407550662
100032.407550212
100032.407549751
100032.407549281
100032.407548804
100032.407548323
100032.407547839
100032.407547355
100032.407546872
100032.407546393
100032.40754592
100032.407545454
100032.407544998
100032.407544553
100032.407544122
100032.407543706
100032.407543306
100032.407542925
100032.407542563
100032.407542223
100032.407541905
100032.407541611
100032.407541342
100032.407541099
100032.407540883
100032.407540696
100032.407540537
100032.407540407
100032.407540306
100032.407540235
100032.407540191
100032.407540174
100032.40754018
100032.407540206
100032.40754025
100032.40754031
100032.407540352
100032.407540341
100032.405192116
100032.405192009
100032.405191862
100032.405191646
100032.405191358
100032.405191022
100032.405190648
100032.405190245
100032.405189818
100032.405189372
100032.405188912
100032.40518844
100032.40518796
100032.405187472
100032.405186979
100032.405186482
100032.405185984
100032.405185485
100032.405184988
100032.405184495
100032.405184006
100032.405183525
100032.405183052
100032.40518259
100032.405182141
100032.405181705
100032.405181286
100032.405180884
100032.405180502
100032.405180141
100032.405179802
100032.405179488
100032.4051792
100032.40517894
100032.405178708
100032.405178507
100032.405178337
100032.4051782
100032.405178097
100032.405178028
100032.405177993
100032.405177992
100032.405178023
100032.405178082
100032.405178166
100032.405178268
100032.405178383
100032.405178506
100032.405178588
100032.405178595
100032.402830117
100032.402829994
100032.402829805
100032.402829524
100032.402829164
100032.402828754
100032.402828306
100032.402827831
100032.402827336
100032.402826829
100032.402826313
100032.402825791
100032.402825267
100032.402824742
100032.402824217
100032.402823694
100032.402823173
100032.402822658
100032.402822148
100032.402821645
100032.402821151
100032.402820667
100032.402820195
100032.402819737
100032.402819293
100032.402818867
100032.402818459
100032.402818072
100032.402817707
100032.402817366
100032.402817051
100032.402816763
100032.402816505
100032.402816277
100032.402816083
100032.402815922
100032.402815798
100032.402815712
100032.402815664
100032.402815656
100032.402815687
100032.402815757
100032.402815863
100032.402816
100032.402816163
100032.402816344
100032.402816532
100032.402816718
100032.402816842
100032.402816868
100032.400468145
100032.400468003
100032.400467769
100032.400467422
100032.400466988
100032.400466501
100032.400465976
100032.400465428
100032.400464865
100032.400464294
100032.400463722
100032.400463151
100032.400462583
100032.40046202
100032.400461463
100032.400460914
100032.400460372
100032.400459839
100032.400459317
100032.400458805
100032.400458305
100032.400457819
100032.400457347
100032.400456893
100032.400456456
100032.400456039
100032.400455643
100032.40045527
100032.400454922
100032.400454601
100032.400454308
100032.400454046
100032.400453817
100032.400453622
100032.400453464
100032.400453345
100032.400453267
100032.400453231
100032.400453238
100032.400453291
100032.400453388
100032.400453529
100032.400453711
100032.400453928
100032.400454172
100032.400454433
100032.400454697
100032.40045495
100032.400455119
100032.400455164
100032.398106209
100032.398106048
100032.398105767
100032.398105349
100032.398104836
100032.398104268
100032.398103665
100032.398103041
100032.398102408
100032.398101774
100032.398101145
100032.398100523
100032.398099912
100032.398099312
100032.398098724
100032.398098148
100032.398097585
100032.398097035
100032.3980965
100032.398095979
100032.398095474
100032.398094985
100032.398094515
100032.398094063
100032.398093633
100032.398093224
100032.39809284
100032.398092481
100032.39809215
100032.398091848
100032.398091578
100032.398091342
100032.398091141
100032.398090979
100032.398090857
100032.398090779
100032.398090745
100032.398090759
100032.398090822
100032.398090935
100032.398091098
100032.398091311
100032.39809157
100032.398091868
100032.398092196
100032.398092541
100032.398092886
100032.39809321
100032.398093426
100032.398093491
100032.395744316
100032.395744132
100032.3957438
100032.395743306
100032.395742709
100032.395742056
100032.39574137
100032.395740669
100032.395739964
100032.395739266
100032.39573858
100032.395737908
100032.395737254
100032.395736617
100032.395735997
100032.395735395
100032.395734811
100032.395734245
100032.395733697
100032.395733167
100032.395732657
100032.395732166
100032.395731696
100032.395731248
100032.395730824
100032.395730424
100032.395730051
100032.395729706
100032.395729391
100032.395729109
100032.395728861
100032.395728649
100032.395728477
100032.395728347
100032.395728261
100032.395728222
100032.395728232
100032.395728295
100032.395728413
100032.395728587
100032.395728817
100032.395729103
100032.39572944
100032.395729822
100032.395730237
100032.39573067
100032.395731101
100032.395731501
100032.395731768
100032.395731856
100032.393382474
100032.393382267
100032.393381879
100032.393381301
100032.393380615
100032.393379871
100032.393379099
100032.393378316
100032.393377539
100032.393376775
100032.393376031
100032.39337531
100032.393374612
100032.393373938
100032.393373288
100032.393372661
100032.393372056
100032.393371473
100032.393370913
100032.393370374
100032.393369858
100032.393369365
100032.393368896
100032.393368452
100032.393368033
100032.393367642
100032.39336728
100032.393366948
100032.39336665
100032.393366386
100032.393366159
100032.393365973
100032.393365828
100032.393365729
100032.393365677
100032.393365678
100032.393365732
100032.393365844
100032.393366016
100032.39336625
100032.393366547
100032.393366906
100032.393367323
100032.393367791
100032.393368298
100032.393368824
100032.393369347
100032.393369831
100032.393370153
100032.393370267
100032.391020693
100032.391020458
100032.391020007
100032.391019337
100032.391018553
100032.391017712
100032.391016848
100032.391015983
100032.39101513
100032.3910143
100032.391013499
100032.391012727
100032.391011986
100032.391011276
100032.391010595
100032.391009943
100032.391009318
100032.391008719
100032.391008147
100032.3910076
100032.391007079
100032.391006583
100032.391006115
100032.391005674
100032.391005261
100032.391004878
100032.391004527
100032.391004208
100032.391003925
100032.39100368
100032.391003474
100032.391003311
100032.391003193
100032.391003124
100032.391003107
100032.391003146
100032.391003243
100032.391003403
100032.391003628
100032.391003922
100032.391004286
100032.391004719
100032.391005218
100032.391005775
100032.391006377
100032.391007004
100032.391007627
100032.391008203
100032.391008588
100032.391008729
100032.388658983
100032.388658717
100032.388658194
100032.388657422
100032.388656529
100032.388655584
100032.388654624
100032.388653671
100032.388652742
100032.388651845
100032.388650985
100032.388650163
100032.38864938
100032.388648634
100032.388647923
100032.388647246
100032.388646601
100032.388645987
100032.388645403
100032.388644848
100032.388644321
100032.388643824
100032.388643356
100032.388642918
100032.388642511
100032.388642136
100032.388641795
100032.388641489
100032.388641221
100032.388640993
100032.388640808
100032.388640668
100032.388640576
100032.388640537
100032.388640553
100032.388640629
100032.388640768