/*--------------------------------*- C++ -*----------------------------------*\
  =========                 |
  \\      /  F ield         | OpenFOAM: The Open Source CFD Toolbox
   \\    /   O peration     | Website:  https://openfoam.org
    \\  /    A nd           | Version:  10
     \\/     M anipulation  |
\*---------------------------------------------------------------------------*/
FoamFile
{
    format      ascii;
    class       volScalarField;
    location    "0.6";
    object      p_rgh;
}
// * * * * * * * * * * * * * * * * * * * * * * * * * * * * * * * * * * * * * //

dimensions      [1 -1 -2 0 0 0 0];

internalField   nonuniform List<scalar> 
2500
(
32.5824815505912
32.5825399749738
32.5825472901197
32.5825506481633
32.5825534406467
32.5825558331708
32.5825578367512
32.5825594909838
32.5825608407758
32.5825619265524
32.5825627826416
32.5825634379726
32.5825639173127
32.582564241995
32.5825644302531
32.5825644982833
32.582564459939
32.5825643278658
32.5825641127594
32.5825638242532
32.5825634706125
32.5825630593754
32.5825625963334
32.5825620862452
32.5825615337963
32.5825609429594
32.5825603151607
32.5825596522482
32.5825589549495
32.5825582222751
32.5825574534101
32.5825566458225
32.5825557958597
32.5825548988505
32.5825539482612
32.5825529369176
32.5825518549827
32.5825506909896
32.5825494307792
32.5825480573694
32.5825465499656
32.5825448832475
32.5825430260156
32.582540940246
32.5825385818025
32.5825359103765
32.582532909466
32.5825293840608
32.5825218139507
32.5824632419244
32.5835145783058
32.5835523998685
32.5835732114647
32.5835777333123
32.5835806047835
32.5835830022988
32.5835849987343
32.5835866439011
32.5835879853257
32.5835890640155
32.5835899141239
32.5835905645654
32.5835910398164
32.5835913610354
32.5835915464268
32.5835916120268
32.5835915717762
32.5835914380878
32.5835912216862
32.583590932205
32.5835905780405
32.5835901661485
32.5835897026263
32.5835891927854
32.5835886405839
32.5835880500817
32.5835874228651
32.5835867607675
32.5835860644147
32.5835853331373
32.5835845655238
32.5835837595805
32.5835829115385
32.583582016523
32.5835810686112
32.5835800601199
32.5835789814882
32.5835778213223
32.5835765655502
32.5835751973646
32.5835736961162
32.5835720367468
32.5835701881297
32.5835681119206
32.5835657615098
32.5835630853253
32.5835600021092
32.5835553399229
32.5835342427745
32.5834931922291
32.5837502421055
32.5837652346672
32.5837773249659
32.5837822862813
32.5837852675177
32.5837876699079
32.583789647324
32.5837912711286
32.5837925936066
32.5837936562166
32.5837944929808
32.5837951324356
32.5837955984025
32.5837959117198
32.583796090461
32.5837961504294
32.5837961054058
32.5837959677156
32.5837957479816
32.5837954557501
32.5837950992573
32.58379468559
32.5837942208163
32.583793710277
32.5837931579299
32.5837925672968
32.5837919405894
32.583791279365
32.5837905841909
32.5837898547179
32.5837890894909
32.5837882863707
32.5837874416611
32.5837865507201
32.583785607465
32.5837846044742
32.5837835322891
32.5837823797337
32.5837811330275
32.583779775654
32.5837782874441
32.583776643849
32.5837748142803
32.5837727602047
32.5837704315054
32.5837677587697
32.5837645957508
32.5837595983903
32.5837473205756
32.583730053535
32.5837440819159
32.5837494260195
32.583755701984
32.5837601410312
32.5837631563481
32.5837655350333
32.58376747281
32.5837690587505
32.5837703489524
32.5837713848887
32.583772199665
32.5837728208571
32.5837732716609
32.5837735723326
32.5837737404072
32.5837737914408
32.5837737389229
32.5837735949754
32.5837733700755
32.5837730736821
32.5837727138132
32.5837722976867
32.5837718311959
32.5837713196233
32.5837707669707
32.5837701766577
32.5837695509545
32.5837688914326
32.5837681986013
32.5837674722425
32.5837667109154
32.5837659124663
32.5837650733447
32.5837641890976
32.5837632536713
32.5837622598337
32.5837611984607
32.5837600586383
32.5837588270515
32.5837574878242
32.5837560214859
32.5837544045644
32.5837526075484
32.5837505926465
32.5837483075884
32.583745670112
32.5837425019272
32.5837380310259
32.5837315762765
32.583725327655
32.5836788513698
32.583681248565
32.5836855816888
32.5836895459215
32.5836924704636
32.5836947780335
32.583696652553
32.5836981852335
32.5836994318088
32.583700432253
32.5837012180418
32.5837018153688
32.5837022464402
32.5837025307555
32.5837026851805
32.583702724849
32.5837026628724
32.5837025111541
32.5837022799387
32.5837019785395
32.5837016147998
32.5837011958793
32.5837007276277
32.583700215182
32.5836996625731
32.5836990731914
32.5836984492489
32.5836977924046
32.5836971031385
32.5836963812762
32.5836956254643
32.5836948336073
32.5836940022855
32.5836931271624
32.583692202461
32.5836912211234
32.5836901743896
32.5836890518112
32.5836878406262
32.5836865257734
32.5836850889173
32.5836835079244
32.5836817551462
32.5836797948577
32.5836775761854
32.583675016358
32.5836719487415
32.5836679552158
32.5836634563166
32.5836607085512
32.5836007424805
32.5836022347648
32.5836055674299
32.5836090233643
32.5836117522849
32.5836139426538
32.5836157311423
32.5836171967821
32.5836183900974
32.5836193477298
32.5836200987687
32.5836206676613
32.5836210753332
32.5836213402799
32.5836214786832
32.5836215050804
32.5836214322189
32.583621271624
32.5836210332927
32.5836207263492
32.5836203585059
32.5836199367477
32.5836194668373
32.5836189538968
32.5836184018408
32.5836178140598
32.5836171927804
32.5836165396177
32.5836158551247
32.5836151391704
32.5836143904453
32.5836136069993
32.5836127855146
32.5836119218729
32.5836110104865
32.5836100446759
32.583609016001
32.5836079146102
32.5836067284399
32.5836054433748
32.5836040424037
32.5836025052267
32.5836008066981
32.5835989146144
32.5835967835592
32.5835943421844
32.5835914663039
32.5835879703081
32.5835844993999
32.5835828176787
32.5835198281275
32.5835209381621
32.5835235267004
32.5835264819762
32.583528958683
32.5835309976974
32.5835326809174
32.5835340674239
32.5835351989081
32.5835361072386
32.5835368184198
32.5835373547743
32.5835377356998
32.5835379786004
32.5835380987992
32.5835381102224
32.5835380250937
32.5835378545889
32.5835376084287
32.5835372954461
32.5835369232082
32.5835364985687
32.5835360271594
32.5835355139861
32.5835349629779
32.5835343774525
32.5835337596072
32.5835331111157
32.5835324325017
32.5835317237215
32.5835309835966
32.5835302102205
32.5835294005083
32.5835285504872
32.5835276548751
32.5835267073271
32.583525699898
32.5835246232891
32.5835234662954
32.583522215893
32.5835208565695
32.5835193701932
32.5835177347035
32.5835159227572
32.5835138972907
32.5835116051312
32.5835089721513
32.5835059626406
32.5835032648465
32.5835020074155
32.5834381322056
32.5834390020755
32.5834410350944
32.5834435372235
32.5834457439778
32.5834476119053
32.5834491759306
32.5834504735394
32.5834515359747
32.5834523894155
32.5834530562279
32.5834535563772
32.5834539075731
32.5834541259828
32.5834542259836
32.5834542208468
32.5834541222284
32.5834539408825
32.5834536862094
32.5834533667803
32.5834529899439
32.5834525623795
32.5834520896169
32.5834515765746
32.5834510270652
32.583450444421
32.5834498308104
32.5834491878923
32.5834485162632
32.5834478159522
32.5834470858244
32.5834463241627
32.5834455279983
32.5834446936788
32.5834438161546
32.5834428895032
32.5834419062448
32.5834408577939
32.583439733804
32.583438522488
32.5834372099634
32.5834357804852
32.583434215514
32.5834324932948
32.5834305866301
32.5834284620796
32.5834260894335
32.5834235217626
32.5834214014321
32.5834203968989
32.5833560729661
32.583356762625
32.5833583862259
32.5833604984655
32.5833624412917
32.5833641305944
32.5833655669703
32.5833667686238
32.5833677563351
32.5833685501566
32.583369168744
32.5833696294576
32.5833699482464
32.5833701399242
32.5833702179516
32.5833701947849
32.5833700815128
32.5833698884671
32.5833696246555
32.5833692983433
32.5833689166902
32.5833684861864
32.5833680122014
32.583367499552
32.5833669520362
32.5833663728554
32.5833657641924
32.5833651277644
32.583364464168
32.5833637734759
32.5833630547131
32.5833623062936
32.5833615254378
32.5833607087261
32.5833598514582
32.583358948119
32.5833579917817
32.5833569745737
32.5833558870654
32.5833547187358
32.5833534575213
32.5833520900924
32.5833506016643
32.5833489762153
32.5833471965161
32.5833452470688
32.5833431303909
32.5833409450861
32.5833392487839
32.5833384310099
32.5832737601158
32.5832743087085
32.5832756260643
32.583277410813
32.5832791080902
32.5832806200051
32.5832819251518
32.5832830264408
32.5832839352079
32.5832846657431
32.5832852328458
32.583285651388
32.5832859353977
32.5832860984083
32.5832861527888
32.5832861102826
32.5832859813381
32.5832857757778
32.5832855022454
32.5832851687301
32.5832847821002
32.5832843486423
32.5832838736096
32.5832833617023
32.5832828165876
32.5832822414814
32.5832816385373
32.5832810094435
32.5832803548692
32.5832796749892
32.5832789689011
32.583278235179
32.5832774712908
32.5832766740496
32.5832758391189
32.5832749613764
32.5832740345359
32.5832730513794
32.5832720035105
32.5832708816888
32.583269675597
32.5832683744375
32.5832669670781
32.5832654429978
32.5832637939457
32.5832620189612
32.5832601420698
32.5832582796138
32.5832568979968
32.583256225349
32.5831912439753
32.5831916819443
32.5831927656545
32.5831942772493
32.5831957519404
32.5831970932486
32.5831982674135
32.583199266257
32.5832000933733
32.5832007578429
32.5832012708852
32.5832016448985
32.5832018921064
32.5832020246744
32.5832020539819
32.5832019909139
32.583201845322
32.5832016265485
32.5832013427716
32.5832010016748
32.5832006098935
32.5832001734962
32.5831996975612
32.583199186658
32.5831986443955
32.5831980739167
32.5831974773464
32.5831968564162
32.5831962118391
32.5831955438189
32.583194851657
32.5831941340439
32.5831933886511
32.5831926125975
32.5831918018957
32.5831909519038
32.5831900568592
32.5831891103444
32.5831881048944
32.5831870325637
32.583185884796
32.5831846531655
32.5831833299453
32.5831819096202
32.583180391317
32.5831787847565
32.5831771264347
32.5831755342224
32.5831743910821
32.5831738324341
32.5831085558311
32.5831089061685
32.5831098063936
32.5831110896834
32.5831123655662
32.5831135461776
32.5831145923294
32.5831154886109
32.5831162326504
32.5831168291479
32.5831172861654
32.5831176137581
32.5831178224471
32.5831179230736
32.5831179260131
32.5831178413355
32.5831176782522
32.5831174455816
32.583117151109
32.5831168021687
32.5831164051051
32.5831159657973
32.5831154891202
32.5831149795267
32.5831144405529
32.5831138752546
32.583113285742
32.5831126737758
32.5831120400981
32.583111385029
32.5831107079575
32.5831100077776
32.5831092823646
32.5831085291429
32.5831077444745
32.5831069241976
32.5831060631172
32.5831051555433
32.5831041949859
32.5831031747512
32.5831020878541
32.5831009281537
32.5830996909353
32.5830983749183
32.5830969848903
32.5830955376878
32.5830940755841
32.5830927096395
32.5830917521234
32.5830912832316
32.583025722226
32.5830260029179
32.583026756387
32.5830278474605
32.583028946683
32.5830299777881
32.583030900656
32.583031695729
32.5830323563714
32.583032883791
32.583033283343
32.5830335630308
32.5830337317602
32.5830337991647
32.583033774572
32.5830336673243
32.5830334859929
32.5830332388286
32.5830329332093
32.583032576149
32.5830321736867
32.5830317314685
32.5830312541802
32.5830307461874
32.5830302108807
32.5830296512577
32.583029069443
32.5830284671829
32.5830278452631
32.5830272040912
32.583026543216
32.583025861677
32.5830251576263
32.5830244287499
32.5830236717593
32.5830228829727
32.5830220577627
32.5830211911671
32.5830202776415
32.5830193115689
32.5830182875798
32.5830172014248
32.583016050994
32.5830148383247
32.5830135723372
32.5830122739717
32.5830109868693
32.5830098115985
32.5830090019153
32.5830086046481
32.5829427622084
32.5829429863516
32.5829436189961
32.5829445467534
32.5829454892082
32.5829463823175
32.5829471876641
32.5829478838859
32.5829484616697
32.5829489195312
32.5829492607154
32.5829494913633
32.5829496190272
32.5829496521183
32.5829495990765
32.5829494684294
32.582949268166
32.5829490059841
32.5829486888979
32.5829483234847
32.5829479155364
32.5829474704224
32.5829469927266
32.5829464865965
32.5829459553497
32.5829454019113
32.5829448284057
32.5829442365357
32.5829436271888
32.5829430008889
32.5829423572577
32.5829416955385
32.5829410141305
32.5829403109674
32.5829395832116
32.5829388275597
32.5829380399809
32.5829372161825
32.5829363514786
32.5829354413581
32.5829344817466
32.5829334700975
32.5829324063961
32.5829312951828
32.5829301479971
32.5829289876856
32.5829278563906
32.5829268431407
32.5829261542094
32.5829258146405
32.5828596944048
32.5828598724183
32.5828604044946
32.5828611918696
32.5828619947424
32.5828627607698
32.5828634547797
32.58286405525
32.5828645512956
32.5828649397299
32.582865222008
32.5828654028446
32.5828654884972
32.5828654863872
32.5828654040524
32.5828652492928
32.5828650294861
32.5828647518501
32.5828644229041
32.5828640489199
32.582863635369
32.5828631874465
32.5828627094452
32.5828622054105
32.5828616785584
32.5828611317702
32.5828605670831
32.5828599862871
32.5828593902843
32.5828587796714
32.5828581542155
32.5828575133783
32.5828568557481
32.5828561796079
32.5828554824111
32.5828547613492
32.582854012915
32.5828532334999
32.5828524191311
32.5828515663161
32.5828506721155
32.5828497353941
32.5828487577091
32.5828477453033
32.5828467112151
32.5828456784948
32.582844686287
32.5828438122699
32.5828432237176
32.5828429317189
32.5827765318827
32.5827766710863
32.5827771170152
32.5827777823288
32.5827784605208
32.582779109609
32.5827796984959
32.5827802066051
32.5827806225279
32.5827809419861
32.582781165198
32.5827812957286
32.5827813387295
32.5827813006908
32.5827811883937
32.5827810089249
32.5827807690803
32.5827804755827
32.5827801345004
32.5827797517995
32.5827793326316
32.5827788819006
32.5827784037392
32.5827779020765
32.5827773799683
32.5827768402523
32.5827762849367
32.5827757158258
32.5827751338657
32.5827745397255
32.5827739333763
32.5827733144106
32.5827726816497
32.582772033682
32.5827713683248
32.5827706831915
32.5827699752699
32.5827692415478
32.5827684788237
32.582767684391
32.5827668562997
32.5827659944771
32.5827651016734
32.5827641851211
32.5827632583678
32.5827623436198
32.582761476122
32.5827607230458
32.5827602198551
32.5827599674521
32.5826932889904
32.5826933955686
32.5826937673846
32.5826943252614
32.5826948910981
32.5826954322984
32.5826959220285
32.5826963412837
32.5826966789609
32.5826969301997
32.5826970944618
32.5826971743518
32.5826971742208
32.5826970996859
32.5826969568589
32.5826967521716
32.5826964918233
32.5826961820858
32.5826958286489
32.5826954370423
32.5826950121555
32.5826945586596
32.5826940804982
32.582693581382
32.5826930643088
32.5826925320434
32.5826919865649
32.5826914296631
32.5826908623567
32.582690285446
32.5826896989747
32.58268910271
32.5826884957933
32.5826878770313
32.5826872446196
32.5826865965209
32.5826859302906
32.5826852433966
32.5826845333359
32.5826837980567
32.5826830364385
32.5826822492381
32.5826814398315
32.5826806160039
32.5826797910413
32.5826789855637
32.5826782306394
32.5826775840105
32.5826771543507
32.5826769358537
32.582609975434
32.5826100534905
32.5826103595609
32.5826108217589
32.5826112857758
32.5826117271063
32.5826121231366
32.5826124570303
32.5826127184264
32.5826129024063
32.5826130080095
32.582613037157
32.5826129935595
32.5826128821354
32.5826127083274
32.5826124779996
32.582612196813
32.5826118705736
32.5826115045493
32.5826111039351
32.5826106733002
32.5826102170977
32.5826097390527
32.582609242716
32.5826087309833
32.5826082065178
32.5826076713274
32.5826071271586
32.5826065751025
32.5826060160616
32.5826054501958
32.5826048774907
32.5826042972767
32.5826037086372
32.582603110146
32.5826025001443
32.5826018766093
32.5826012375328
32.5826005809504
32.5825999054505
32.5825992104947
32.5825984973344
32.5825977698114
32.5825970356236
32.5825963073294
32.5825956034969
32.5825949510036
32.5825943991076
32.5825940342474
32.5825938449561
32.5825266031316
32.582526656508
32.5825269043271
32.5825272801449
32.5825276508695
32.5825279991986
32.5825283064914
32.5825285583123
32.5825287453481
32.5825288631167
32.5825289104396
32.5825288889027
32.5825288016204
32.5825286529871
32.5825284478342
32.5825281914877
32.5825278891571
32.5825275461393
32.5825271673384
32.5825267576001
32.5825263211882
32.5825258622936
32.5825253844523
32.5825248910551
32.5825243849104
32.5825238685647
32.5825233439973
32.5825228129979
32.5825222767016
32.5825217360834
32.5825211914489
32.5825206429727
32.5825200902036
32.5825195325306
32.5825189687894
32.5825183977286
32.5825178177183
32.5825172272598
32.582516624796
32.5825160094682
32.5825153811165
32.5825147413707
32.582514094116
32.5825134466286
32.5825128103897
32.5825122015813
32.5825116430933
32.5825111767626
32.5825108695135
32.5825107062265
32.5824431798683
32.5824432108348
32.5824434052629
32.5824437022238
32.5824439868447
32.5824442479934
32.5824444708996
32.5824446435872
32.582444758169
32.5824448107742
32.5824448003114
32.5824447282066
32.582444597123
32.5824444110622
32.5824441743025
32.5824438916898
32.5824435679679
32.5824432079971
32.5824428163032
32.582442397339
32.58244195515
32.5824414936214
32.5824410161003
32.5824405258318
32.5824400254787
32.5824395175587
32.5824390039925
32.5824384865555
32.58243796647
32.5824374447984
32.5824369219627
32.5824363983556
32.5824358737009
32.5824353476783
32.5824348194437
32.582434288066
32.5824337523372
32.5824332111224
32.5824326633156
32.5824321084219
32.5824315466016
32.5824309795717
32.5824304110429
32.5824298476509
32.5824292994075
32.5824287801224
32.5824283087713
32.5824279205262
32.5824276657368
32.5824275255727
32.5823597162089
32.582359727181
32.5823598729476
32.5823600968724
32.5823603009776
32.582360479777
32.5823606219928
32.5823607181519
32.5823607619677
32.5823607503698
32.5823606826452
32.582360560089
32.5823603852186
32.5823601615411
32.5823598929564
32.5823595838592
32.5823592385277
32.5823588614294
32.5823584566824
32.5823580284632
32.5823575804388
32.582357116291
32.5823566391773
32.5823561521684
32.5823556577961
32.5823551584908
32.5823546561878
32.5823541526624
32.5823536491662
32.5823531468195
32.5823526462773
32.5823521480197
32.5823516520322
32.5823511582275
32.5823506660672
32.5823501749837
32.5823496840894
32.5823491926567
32.5823486998852
32.5823482055712
32.5823477100785
32.582347215066
32.5823467238661
32.5823462422413
32.5823457785445
32.5823453441553
32.5823449544114
32.5823446385621
32.5823444318085
32.5823443130212
32.5822762187308
32.5822762108728
32.5822763106262
32.5822764661134
32.5822765943303
32.5822766946803
32.5822767592472
32.5822767810751
32.5822767555946
32.5822766807105
32.5822765561752
32.5822763834003
32.5822761647141
32.5822759033472
32.5822756028065
32.5822752670792
32.5822749000217
32.5822745056794
32.5822740878066
32.5822736502596
32.5822731964436
32.5822727297491
32.5822722531157
32.5822717694828
32.5822712812806
32.5822707908374
32.5822703000304
32.5822698106931
32.5822693241062
32.5822688414919
32.582268363607
32.58226789115
32.5822674242809
32.5822669632034
32.5822665076412
32.5822660573467
32.5822656117816
32.5822651705239
32.5822647330788
32.5822642994899
32.5822638701211
32.5822634465148
32.5822630314506
32.5822626296285
32.582262247699
32.5822618945385
32.5822615820653
32.5822613340861
32.5822611724434
32.5822610732721
32.5821926971839
32.5821926720382
32.5821927286743
32.5821928190999
32.5821928747318
32.5821928996011
32.58219288892
32.5821928381774
32.5821927445795
32.5821926071512
32.5821924262273
32.5821922033938
32.5821919409354
32.5821916417917
32.5821913092077
32.5821909467195
32.5821905577759
32.5821901461022
32.5821897150599
32.5821892681415
32.5821888084756
32.5821883392491
32.5821878631687
32.5821873830137
32.5821869010688
32.5821864196187
32.5821859405114
32.582185465566
32.5821849961067
32.5821845334867
32.5821840785793
32.5821836321993
32.5821831948269
32.5821827668115
32.5821823482256
32.5821819390985
32.5821815391828
32.5821811483765
32.5821807664761
32.5821803935978
32.5821800301928
32.5821796774544
32.5821793375362
32.5821790139453
32.5821787116001
32.5821784368018
32.5821781983541
32.5821780149854
32.5821778959216
32.5821778154932
32.5821091565012
32.5821091145044
32.5821091293765
32.5821091572434
32.5821091428516
32.5821090944373
32.5821090102399
32.5821088882367
32.582108727438
32.5821085280477
32.5821082910697
32.5821080183669
32.58210771218
32.5821073753032
32.5821070105885
32.5821066212957
32.582106210466
32.5821057813882
32.5821053371474
32.5821048808721
32.5821044154291
32.5821039436996
32.5821034682449
32.5821029916406
32.5821025160985
32.582102043787
32.5821015765396
32.5821011161752
32.5821006640763
32.5821002216544
32.5820997899427
32.5820993699454
32.5820989623026
32.5820985676692
32.5820981863217
32.582097818653
32.5820974646776
32.5820971245703
32.5820967983454
32.582096486236
32.5820961886348
32.5820959063858
32.5820956409007
32.5820953944785
32.5820951701025
32.5820949717308
32.5820948049513
32.5820946838066
32.5820946058666
32.5820945431769
32.5820256059524
32.5820255479775
32.5820255229191
32.5820254897262
32.5820254067075
32.5820252863195
32.5820251297409
32.5820249373064
32.5820247098745
32.5820244489296
32.5820241561159
32.5820238336601
32.5820234838029
32.5820231091493
32.5820227123186
32.5820222961775
32.5820218633889
32.5820214169362
32.5820209594676
32.5820204938354
32.5820200225717
32.5820195483975
32.5820190735976
32.5820186006167
32.5820181315066
32.582017668421
32.5820172131207
32.5820167674246
32.5820163327735
32.5820159106952
32.5820155023248
32.5820151088265
32.5820147310878
32.5820143699675
32.5820140260621
32.5820136999537
32.5820133920788
32.5820131027722
32.5820128323103
32.5820125809842
32.5820123490557
32.5820121370634
32.5820119455602
32.5820117755356
32.582011628183
32.5820115049719
32.5820114085218
32.5820113482769
32.58201131018
32.582011264938
32.5819420532353
32.5819419790787
32.581941913726
32.5819418200699
32.581941669152
32.5819414773869
32.5819412488636
32.5819409863616
32.5819406926021
32.5819403702335
32.5819400217442
32.581939649579
32.5819392560807
32.5819388437085
32.5819384147617
32.5819379717723
32.5819375170831
32.5819370532117
32.5819365825446
32.5819361075701
32.5819356305728
32.5819351539394
32.581934679838
32.5819342105096
32.5819337479043
32.5819332940737
32.5819328507641
32.5819324197946
32.581932002664
32.5819316009729
32.5819312160165
32.58193084909
32.5819305013138
32.5819301737938
32.5819298673596
32.5819295829569
32.5819293211971
32.5819290827785
32.5819288680796
32.5819286775513
32.5819285113103
32.5819283694436
32.5819282517623
32.5819281579315
32.5819280872383
32.5819280387368
32.5819280120486
32.5819280121068
32.5819280137657
32.5819279856369
32.5818585074157
32.5818584173103
32.5818583117943
32.5818581573549
32.5818579381594
32.5818576747843
32.5818573741562
32.5818570414849
32.5818566812668
32.5818562974746
32.5818558932369
32.581855471406
32.5818550342956
32.5818545841903
32.5818541231711
32.581853653377
32.5818531767582
32.5818526955409
32.5818522116751
32.5818517273874
32.5818512446131
32.581850765564
32.5818502921466
32.5818498264707
32.5818493703409
32.5818489257508
32.5818484944175
32.5818480781454
32.5818476784916
32.5818472971587
32.5818469355436
32.5818465951452
32.5818462772731
32.5818459832662
32.5818457142886
32.5818454714754
32.5818452558015
32.5818450681982
32.5818449092767
32.5818447795173
32.5818446789635
32.5818446073099
32.5818445635377
32.5818445460463
32.5818445522309
32.5818445787008
32.5818446221238
32.5818446828634
32.5818447243219
32.5818447136407
32.5817749730777
32.5817748662957
32.5817747194233
32.581774503109
32.5817742146464
32.5817738786864
32.5817735051387
32.5817731016868
32.5817726746609
32.5817722291977
32.5817717691389
32.5817712975695
32.5817708168761
32.5817703291541
32.5817698361061
32.5817693395802
32.5817688411771
32.5817683426576
32.5817678456951
32.5817673521378
32.5817668636737
32.5817663822236
32.5817659095192
32.5817654474959
32.5817649978562
32.5817645624775
32.5817641430767
32.5817637414584
32.5817633592087
32.5817629981466
32.5817626597855
32.5817623458133
32.5817620577291
32.5817617971334
32.5817615654378
32.5817613641266
32.5817611944076
32.5817610575177
32.5817609543155
32.5817608853249
32.5817608505895
32.5817608493671
32.5817608799553
32.5817609394144
32.5817610233353
32.5817611258535
32.5817612405372
32.5817613630497
32.5817614452972
32.5817614522239
32.5816914593161
32.5816913355229
32.5816911464499
32.5816908662382
32.5816905063548
32.5816900959471
32.5816896480683
32.5816891727882
32.5816886782268
32.5816881706414
32.5816876545287
32.5816871331772
32.5816866089008
32.5816860835912
32.58168555866
32.5816850355332
32.5816845154186
32.5816839997278
32.5816834897414
32.5816829869727
32.5816824928334
32.5816820090113
32.5816815370054
32.5816810786055
32.5816806353541
32.5816802091285
32.5816798015439
32.5816794144339
32.5816790494428
32.5816787084623
32.5816783931514
32.5816781053727
32.5816778468434
32.5816776193824
32.5816774247214
32.5816772646212
32.5816771406389
32.5816770542733
32.5816770066303
32.5816769984231
32.5816770296078
32.5816770992242
32.5816772048129
32.5816773422703
32.5816775053536
32.58167768571
32.5816778737353
32.5816780601599
32.5816781844042
32.5816782098118
32.5816079720389
32.5816078298521
32.581607596032
32.5816072489688
32.5816068147833
32.5816063273523
32.5816058030177
32.5816052543814
32.5816046912805
32.5816041209764
32.5816035484895
32.5816029772541
32.5816024094529
32.5816018467012
32.5816012900323
32.5816007404937
32.5816001988569
32.5815996661258
32.5815991432464
32.5815986313828
32.5815981316555
32.5815976454905
32.5815971741977
32.5815967193776
32.5815962825
32.5815958652965
32.5815954693971
32.5815950966353
32.5815947487281
32.5815944275964
32.5815941350884
32.5815938731976
32.581593643903
32.5815934492712
32.581593291281
32.5815931720717
32.5815930934914
32.5815930573735
32.5815930651297
32.5815931176767
32.5815932150144
32.5815933559497
32.581593537514
32.5815937544539
32.5815939987515
32.5815942596382
32.5815945239883
32.5815947772498
32.5815949458047
32.5815949904936
32.5815245205595
32.5815243589313
32.5815240779339
32.5815236598864
32.5815231472225
32.5815225792321
32.5815219757351
32.5815213517781
32.581520718828
32.5815200850338
32.5815194557945
32.5815188345441
32.5815182232764
32.5815176232136
32.5815170350252
32.5815164592786
32.5815158963233
32.5815153467411
32.5815148111142
32.5815142902575
32.5815137850004
32.5815132965217
32.5815128258982
32.5815123745997
32.5815119439503
32.5815115356527
32.5815111512347
32.5815107925882
32.5815104614303
32.5815101598419
32.5815098897729
32.5815096533915
32.5815094528807
32.5815092905832
32.5815091688273
32.5815090899996
32.5815090563847
32.5815090701217
32.5815091330005
32.5815092461999
32.5815094098798
32.5815096227889
32.5815098814783
32.5815101797634
32.5815105079673
32.5815108527604
32.5815111975098
32.5815115218575
32.581511737415
32.5815118029714
32.5814411114116
32.5814409280574
32.5814405956044
32.5814401012613
32.5814395049965
32.5814388520521
32.5814381659584
32.5814374642796
32.5814367599378
32.5814360617806
32.5814353753813
32.5814347040578
32.5814340494107
32.5814334122842
32.5814327928383
32.5814321911748
32.5814316071919
32.5814310410351
32.5814304928499
32.5814299631602
32.5814294524898
32.5814289617265
32.5814284917724
32.5814280439372
32.5814276194287
32.5814272198331
32.5814268466929
32.5814265018853
32.5814261872001
32.581425904762
32.5814256566809
32.5814254453435
32.5814252731216
32.5814251426491
32.5814250565163
32.5814250175317
32.5814250282856
32.5814250914264
32.5814252090786
32.5814253828139
32.5814256130398
32.5814258986065
32.5814262358181
32.5814266177185
32.5814270331466
32.5814274662698
32.5814278966136
32.5814282973151
32.5814285639499
32.5814286520181
32.5813577545196
32.5813575472712
32.5813571587641
32.581356581155
32.5813558946538
32.5813551512983
32.5813543785771
32.5813535964262
32.5813528189465
32.5813520554657
32.5813513114845
32.581350589986
32.5813498921634
32.5813492182788
32.5813485679246
32.5813479406934
32.5813473359885
32.5813467535045
32.5813461930084
32.5813456546457
32.5813451386348
32.5813446456305
32.5813441763312
32.5813437318575
32.5813433133153
32.5813429222035
32.5813425600645
32.5813422287465
32.5813419300976
32.5813416663732
32.5813414397853
32.5813412528951
32.5813411083218
32.5813410089613
32.5813409577822
32.5813409578841
32.5813410123665
32.5813411242561
32.5813412962016
32.5813415302109
32.5813418271282
32.5813421860657
32.5813426033128
32.5813430714334
32.581343577971
32.5813441047067
32.5813446271495
32.581345111219
32.581345433704
32.5813455469179
32.5812744574359
32.5812742227135
32.5812737712695
32.5812731017213
32.5812723170093
32.5812714768253
32.5812706127908
32.5812697470537
32.5812688945734
32.5812680647941
32.5812672628963
32.5812664913101
32.5812657505448
32.581265040295
32.5812643594836
32.5812637071358
32.5812630821165
32.5812624836835
32.5812619111384
32.5812613643211
32.5812608431152
32.5812603479571
32.5812598792836
32.5812594380841
32.5812590253481
32.5812586425018
32.5812582910585
32.5812579728663
32.5812576898461
32.5812574442825
32.5812572386058
32.5812570755224
32.5812569578993
32.5812568889232
32.5812568718393
32.5812569102563
32.5812570076087
32.5812571675051
32.581257393118
32.5812576870521
32.5812580507336
32.5812584837404
32.5812589826528
32.5812595398602
32.581260142033
32.5812607687549
32.5812613913004
32.5812619673379
32.5812623523525
32.5812624937098
32.5811912313511
32.5811909651384
32.5811904427101
32.5811896702362
32.5811887774762
32.5811878328968
32.5811868723104
32.581185919611
32.5811849902384
32.5811840932438
32.5811832331528
32.5811824115954
32.5811816283385
32.5811808822036
32.581180171459
32.5811794945184
32.5811788496649
32.5811782356468
32.581177651402
32.5811770963483
32.5811765701073
32.5811760727956
32.5811756047478
32.5811751667061
32.5811747596017
32.5811743847444
32.5811740436184
32.5811737381155
32.5811734701711
32.5811732422153
32.5811730567511
32.5811729167181
32.5811728252156
32.5811727856926