/*--------------------------------*- C++ -*----------------------------------*\
  =========                 |
  \\      /  F ield         | OpenFOAM: The Open Source CFD Toolbox
   \\    /   O peration     | Website:  https://openfoam.org
    \\  /    A nd           | Version:  10
     \\/     M anipulation  |
\*---------------------------------------------------------------------------*/
FoamFile
{
    format      ascii;
    class       surfaceScalarField;
    location    "0.6";
    object      phi;
}
// * * * * * * * * * * * * * * * * * * * * * * * * * * * * * * * * * * * * * //

dimensions      [1 0 -1 0 0 0 0];

internalField   nonuniform List<scalar> 
4900
(
-9.52505379595569e-12
8.69141129170061e-12
-3.98073091963867e-12
-6.84519390501225e-12
-5.55308997197288e-12
1.9398542331717e-13
-5.4816850907307e-12
-1.39673510935705e-12
-5.12661635750345e-12
-1.64821908122384e-12
-4.76340414515377e-12
-1.64869542372282e-12
-4.46185896603812e-12
-1.58498858538468e-12
-4.22814192933991e-12
-1.51091553287551e-12
-4.05053849243082e-12
-1.44198763112504e-12
-3.91430729708562e-12
-1.38148723996596e-12
-3.80809045168939e-12
-1.32761890491066e-12
-3.72289812442068e-12
-1.27906334276235e-12
-3.65161569206905e-12
-1.23534121247163e-12
-3.5888857102304e-12
-1.19514468685893e-12
-3.53089023420048e-12
-1.1579105006668e-12
-3.47428439220529e-12
-1.12318228213361e-12
-3.41680801116714e-12
-1.09065371337449e-12
-3.35626446075497e-12
-1.0600628139529e-12
-3.29133534479756e-12
-1.03124565762638e-12
-3.2204005955371e-12
-1.00419759874761e-12
-3.14274526378246e-12
-9.78708851500223e-13
-3.05738330241449e-12
-9.54677975050533e-13
-2.9637787921167e-12
-9.32323473284151e-13
-2.86115021882041e-12
-9.11466783128391e-13
-2.74926725743945e-12
-8.92191461480924e-13
-2.62740846463234e-12
-8.74519258356161e-13
-2.49539421479818e-12
-8.58498285089022e-13
-2.35251591834481e-12
-8.44158075546202e-13
-2.19847901104987e-12
-8.31630408369875e-13
-2.03245031337547e-12
-8.2094583891952e-13
-1.85393567155074e-12
-8.12275168737009e-13
-1.6618331446509e-12
-8.05733434480294e-13
-1.45529173528244e-12
-8.01552488155059e-13
-1.23280083780843e-12
-7.99930131754709e-13
-9.92945048287903e-13
-8.012227980049e-13
-7.3349284341207e-13
-8.05807442510852e-13
-4.52041273278892e-13
-8.14238764582581e-13
-1.45044913695158e-13
-8.27184798221758e-13
1.91777950201665e-13
-8.45595601677089e-13
5.64557975614617e-13
-8.70665311346009e-13
9.81187298734306e-13
-9.04012387912585e-13
1.45243598330033e-12
-9.47532229783256e-13
1.99140447706381e-12
-1.00320767307924e-12
2.60982462225829e-12
-1.06936965044398e-12
3.30336792507883e-12
-1.13198735450471e-12
4.00931424046648e-12
-1.13693829211551e-12
4.47018932172197e-12
-8.9450046363946e-13
3.40291771585891e-12
6.24436152332026e-13
9.4110966462432e-12
-6.4549812376185e-12
9.09577480997159e-12
-1.17165294088699e-11
1.92466010101636e-11
-7.27468624019582e-12
-1.29497476696266e-11
-7.14878110984015e-12
-1.51507434059229e-12
-7.47137096534296e-12
-2.57938575857741e-12
-7.07448751915746e-12
-3.51524834629963e-12
-6.63829703627028e-12
-3.54628208709397e-12
-6.29574251652324e-12
-3.38511527650764e-12
-6.04631396626902e-12
-3.20912618274106e-12
-5.86945746973782e-12
-3.05164601540276e-12
-5.74424016775951e-12
-2.91673698520541e-12
-5.65452109815891e-12
-2.79951803941771e-12
-5.5877817003549e-12
-2.69620607400288e-12
-5.53465671859146e-12
-2.60463422878326e-12
-5.48793441678984e-12
-2.52186540624478e-12
-5.44251650229162e-12
-2.44623417833038e-12
-5.39405625276876e-12
-2.37660340526342e-12
-5.33960775617063e-12
-2.31206126488751e-12
-5.27642143313892e-12
-2.25199749422496e-12
-5.20279695485928e-12
-2.19592044604926e-12
-5.11701355774172e-12
-2.14358329763314e-12
-5.0181372723576e-12
-2.09468232021102e-12
-4.90494052511869e-12
-2.04907625020018e-12
-4.77709848899689e-12
-2.00674431946709e-12
-4.63377168982567e-12
-1.96763092664022e-12
-4.47483625178516e-12
-1.9317251618277e-12
-4.29964302335318e-12
-1.89913283104303e-12
-4.10812756868522e-12
-1.86988818689903e-12
-3.89962581920259e-12
-1.84414557037621e-12
-3.67395996802895e-12
-1.8220744154193e-12
-3.43027527386776e-12
-1.80389644007524e-12
-3.16811441398243e-12
-1.78987348581343e-12
-2.88627926182978e-12
-1.78039027331376e-12
-2.5838373325857e-12
-1.77587578349958e-12
-2.25904145857419e-12
-1.77690195983707e-12
-1.9102089318768e-12
-1.7841913017783e-12
-1.53465083532972e-12
-1.79870198248365e-12
-1.12937413717472e-12
-1.82164493622384e-12
-6.89924958946794e-13
-1.85466591382556e-12
-2.10785795329014e-13
-1.89992720266342e-12
3.16026016185976e-13
-1.96037050454425e-12
9.01023359956448e-13
-2.03987180885454e-12
1.5588125736102e-12
-2.14333166365574e-12
2.30801626136253e-12
-2.27636667503904e-12
3.16812330029309e-12
-2.43820252229112e-12
4.14087576653905e-12
-2.60002079522886e-12
5.10128356314819e-12
-2.5865962089554e-12
5.37514660118447e-12
-1.66389825956326e-12
6.16212683459516e-12
-6.73266218065561e-13
1.135421077722e-11
-1.21901707765025e-11
2.00860510005741e-11
-8.34114391299426e-12
2.63629385230407e-11
-1.03323593647145e-11
-1.26047593070327e-11
-7.07647293944443e-12
-6.15177424240924e-12
-6.46101917504916e-12
-4.48815602565743e-12
-5.96033356574203e-12
-5.27835753957116e-12
-5.59146807686664e-12
-5.16948169254973e-12
-5.33525071348372e-12
-4.89147032564168e-12
-5.16202879452445e-12
-4.6240624683382e-12
-5.04759111232251e-12
-4.39338426409557e-12
-4.97379094285979e-12
-4.1977582718889e-12
-4.92652787991103e-12
-4.02968535839294e-12
-4.89510028539082e-12
-3.88292620136568e-12
-4.87230698193984e-12
-3.7530638146959e-12
-4.85217860386255e-12
-3.63634431425668e-12
-4.83057784163563e-12
-3.53014421165201e-12
-4.80401328798556e-12
-3.43271843052671e-12
-4.77014114671036e-12
-3.34270371421874e-12
-4.72679094666699e-12
-3.25916715102678e-12
-4.67266267367708e-12
-3.18138261950908e-12
-4.6064040250182e-12
-3.10891194255375e-12
-4.52736720885209e-12
-3.04135883697339e-12
-4.43466703223527e-12
-2.97851527223799e-12
-4.32811052198756e-12
-2.92025441049922e-12
-4.2071365372805e-12
-2.86653452861333e-12
-4.07174729623076e-12
-2.81733036110114e-12
-3.92154132073626e-12
-2.77275527907414e-12
-3.75657308469102e-12
-2.73289288737329e-12
-3.57641641930585e-12
-2.69795365918902e-12
-3.38104251647311e-12
-2.66817421888734e-12
-3.16987150488682e-12
-2.64389530886757e-12
-2.94263571304187e-12
-2.62549958988203e-12
-2.6984789569496e-12
-2.61354287523515e-12
-2.43676117045154e-12
-2.60864827400621e-12
-2.15617236489312e-12
-2.61166717517257e-12
-1.85547128113781e-12
-2.62363459913907e-12
-1.53260328271205e-12
-2.64594533941125e-12
-1.18527435287435e-12
-2.68035960127546e-12
-8.10016346373208e-13
-2.72926843160466e-12
-4.02497622771757e-13
-2.7958256975688e-12
4.36255273870863e-14
-2.88434627515776e-12
5.36835008683963e-13
-3.00059503495164e-12
1.08926225697984e-12
-3.15215279327033e-12
1.71721075419095e-12
-3.34847432097687e-12
2.44237681296895e-12
-3.59427017153842e-12
3.29188122348545e-12
-3.86899113618505e-12
4.28555773499289e-12
-3.99564843488282e-12
5.41425994734024e-12
-3.21704535645227e-12
9.31211216947837e-12
-5.0225563820861e-12
7.96268602621533e-12
-1.13701109916663e-11
2.7695754197997e-11
-5.28090461918706e-12
3.04036065796884e-11
-9.83716812753588e-12
-9.67361902073585e-12
-7.29743182663531e-12
-9.98893578476475e-12
-6.07708171244347e-12
-6.91822393587905e-12
-5.4601522673176e-12
-7.07502635911741e-12
-5.09955390229224e-12
-6.70176520809837e-12
-4.87092469973183e-12
-6.28722374511845e-12
-4.72332426496249e-12
-5.93032578956602e-12
-4.62908242163742e-12
-5.63238912478657e-12
-4.57026313360671e-12
-5.38227513497885e-12
-4.53416965682209e-12
-5.16855051799668e-12
-4.51138047729771e-12
-4.98253074100919e-12
-4.49541675132616e-12
-4.8180173471091e-12
-4.48106957569987e-12
-4.6703441846266e-12
-4.46468919644629e-12
-4.53615463054175e-12
-4.44318760550888e-12
-4.41315547421394e-12
-4.414504653436e-12
-4.29962236637755e-12
-4.37670477264544e-12
-4.1943390355602e-12
-4.32865079574042e-12
-4.0963937175616e-12
-4.26912209677628e-12
-4.00518555920493e-12
-4.19757028578159e-12
-3.92023665551125e-12
-4.11321497121574e-12
-3.8412683921764e-12
-4.01589590096595e-12
-3.76810012915142e-12
-3.90512448900626e-12
-3.70066895239228e-12
-3.78093301578506e-12
-3.6389600394099e-12
-3.64296641151556e-12
-3.58308546187118e-12
-3.49130965003813e-12
-3.5331783884924e-12
-3.32558992492463e-12
-3.48949336269791e-12
-3.14581172381687e-12
-3.45233986767685e-12
-2.95147107120955e-12
-3.42214732189403e-12
-2.74235971693112e-12
-3.39942288496342e-12
-2.51772918806669e-12
-3.38485748273045e-12
-2.27704187895382e-12
-3.37926152751241e-12
-2.01915644450894e-12
-3.3837114926036e-12
-1.74301342628292e-12
-3.39953014680696e-12
-1.44683017285771e-12
-3.42847111347885e-12
-1.12864344070223e-12
-3.47277627231705e-12
-7.85460290724179e-13
-3.53545425517524e-12
-4.13569268021599e-13
-3.62050583390115e-12
-7.4927622385269e-15
-3.73340234311936e-12
4.40145361773526e-13
-3.8815733086431e-12
9.40166717474239e-13
-4.07510866539483e-12
1.50794645338829e-12
-4.32767113959131e-12
2.16735624520777e-12
-4.65251473679776e-12
2.9620338817385e-12
-5.05163527377708e-12
4.00678505869408e-12
-5.42498563538043e-12
5.67972228751903e-12
-5.28569987247601e-12
8.95268485042823e-12
-8.72279492736433e-12
4.89920062580636e-12
-7.83599645700037e-12
3.22481984323734e-11
-3.92942196485994e-12
3.31077244275788e-11
-8.20549622614558e-12
-6.98692852947508e-12
-6.95381683569054e-12
-1.24927761973958e-11
-5.85824780403278e-12
-9.17920861444338e-12
-5.27175547942547e-12
-8.79814809748474e-12
-4.93682405368021e-12
-8.16509644205803e-12
-4.73327797551932e-12
-7.6140971626608e-12
-4.6071784888369e-12
-7.17095824256992e-12
-4.53027777521426e-12
-6.80990319097584e-12
-4.48509264803791e-12
-6.50926581867311e-12
-4.45980111608572e-12
-6.25318719643768e-12
-4.44574306409617e-12
-6.03058327428726e-12
-4.43691783967642e-12
-5.83371260611219e-12
-4.4285356289977e-12
-5.65702109136878e-12
-4.41723686928462e-12
-5.49652806461076e-12
-4.40014646094903e-12
-5.34945274304074e-12
-4.37536583240534e-12
-5.21375164150051e-12
-4.34107655498654e-12
-5.08796080678217e-12
-4.29623478018614e-12
-4.97100085619422e-12
-4.23969037278434e-12
-4.86212568705071e-12
-4.17095543608105e-12
-4.76078138247777e-12
-4.08930645835554e-12
-4.66661838938493e-12
-3.99462191792169e-12
-4.57941685757849e-12
-3.88645387396926e-12
-4.49908831072401e-12
-3.76487370116062e-12
-4.4256265582994e-12
-3.62956067187275e-12
-4.35914632161561e-12
-3.48063804977519e-12
-4.29982399410694e-12
-3.31777146162015e-12
-4.24795765109841e-12
-3.14100598544188e-12
-4.20392602240264e-12
-2.94988725887443e-12
-4.16823882062234e-12
-2.74426006801514e-12
-4.1415227144486e-12
-2.52344500131204e-12
-4.1245890996454e-12
-2.2869794684627e-12
-4.11842785195755e-12
-2.03382998053743e-12
-4.12430992050003e-12
-1.76306158453111e-12
-4.1438272504398e-12
-1.47306555015758e-12
-4.17904536413418e-12
-1.16210685297758e-12
-4.2326330358481e-12
-8.27507480883856e-13
-4.30813481367356e-12
-4.65984326713016e-13
-4.41028839912007e-12
-7.26523684457834e-14
-4.54556849354887e-12
3.59080320903126e-13
-4.72288506975137e-12
8.39061709610572e-13
-4.95465155998788e-12
1.38172462647285e-12
-5.25873909745384e-12
2.01077728282467e-12
-5.65764884628646e-12
2.77117250869419e-12
-6.17734859148446e-12
3.77261407691988e-12
-6.7887736519889e-12
5.31593625950444e-12
-7.20386733993553e-12
7.32786492228382e-12
-1.1142444682241e-11
3.51326930095654e-12
-4.51983534514451e-12
3.54319613752736e-11
-3.18127923920986e-12
3.50835403188429e-11
-6.66495575324088e-12
-5.06158306719976e-12
-6.23274707736406e-12
-1.41497044121708e-11
-5.52732898932067e-12
-1.10242870520477e-11
-5.06525424724339e-12
-1.03713205687554e-11
-4.78605398286063e-12
-9.54694547397756e-12
-4.61697416056145e-12
-8.88028222360353e-12
-4.51543033229763e-12
-8.36045057452884e-12
-4.4568781359901e-12
-7.94236371622248e-12
-4.42566201552803e-12
-7.59568094801654e-12
-4.41122635802821e-12
-7.300622740997e-12
-4.40580012654919e-12
-7.04402438345674e-12
-4.40395720013444e-12
-6.81687964287722e-12
-4.40133377465333e-12
-6.61286626166259e-12
-4.39487668590186e-12
-6.42748453239647e-12
-4.38192001886206e-12
-6.2575507764768e-12
-4.36072199286225e-12
-6.10074915948869e-12
-4.32957853676216e-12
-5.955404296302e-12
-4.28753537361576e-12
-5.82029169948293e-12
-4.23350762273955e-12
-5.69454038141646e-12
-4.16706547821136e-12
-5.57752626908824e-12
-4.08753399042895e-12
-5.46883567410512e-12
-3.99483210644089e-12
-5.36821618286452e-12
-3.88854800169532e-12
-5.27555641347554e-12
-3.76878913103798e-12
-5.19085796489453e-12
-3.63526745576201e-12
-5.11424035740454e-12
-3.48814073069586e-12
-5.0459205444868e-12
-3.32711413525271e-12
-4.98623491172998e-12
-3.15227143448501e-12
-4.93563153064608e-12
-2.96320253085775e-12
-4.894695233051e-12
-2.75980746463608e-12
-4.86416019475238e-12
-2.54146811059486e-12
-4.84495309299673e-12
-2.30780093589509e-12
-4.83822473546755e-12
-2.05787176874486e-12
-4.84542120108476e-12
-1.79087580806218e-12
-4.8683718115704e-12
-1.50537739680579e-12
-4.90941279416472e-12
-1.1998763845863e-12
-4.97157748067663e-12
-8.72020725702341e-13
-5.05885947481111e-12
-5.18984422267597e-13
-5.17660513678739e-12
-1.36534345675922e-13
-5.33210714008684e-12
2.81002316005234e-13
-5.53549615099882e-12
7.42150864719943e-13
-5.80110989502851e-12
1.25932379512129e-12
-6.15030178280368e-12
1.85269069798828e-12
-6.61322364198661e-12
2.55694360622422e-12
-7.23301165975284e-12
3.43864361431288e-12
-8.0188627135348e-12
4.60112424858811e-12
-8.72797507916119e-12
5.73738480221749e-12
-1.26732851989192e-11
2.7471779191975e-12
-2.01222631212741e-12
3.78587524362485e-11
-2.62503848713181e-12
3.65345052464764e-11
-5.33974698959574e-12
-3.85981021725693e-12
-5.46670899417987e-12
-1.5208046785901e-11
-5.12304689347724e-12
-1.24714134988238e-11
-4.81711663865821e-12
-1.17536547519807e-11
-4.6117550141115e-12
-1.08200911607875e-11
-4.4845708397037e-12
-1.00691924838612e-11
-4.41026074833188e-12
-9.4869382143023e-12
-4.37079755328171e-12
-9.01981103474992e-12
-4.3535227330267e-12
-8.63229391610449e-12
-4.34958542972071e-12
-8.3019260018746e-12
-4.35228933813608e-12
-8.01403815113466e-12
-4.35689400896768e-12
-7.7587121996262e-12
-4.3595114830349e-12
-7.52904048891631e-12
-4.35741909398094e-12
-7.32013387793923e-12
-4.34818051262875e-12
-7.12849462634077e-12
-4.33021755087782e-12
-6.95159398979268e-12
-4.3019460353542e-12
-6.78758288051835e-12
-4.26250273802982e-12
-6.63511718934116e-12
-4.21086873028976e-12
-6.49322260067572e-12
-4.14667216424518e-12
-6.3612104705791e-12
-4.06928184587559e-12
-6.23861496610163e-12
-3.97865493881696e-12
-6.12515453412432e-12
-3.87441204477068e-12
-6.02069928833812e-12
-3.75669432378517e-12
-5.9252554027877e-12
-3.62524334996148e-12
-5.83895083452942e-12
-3.4802477586645e-12
-5.76204005087345e-12
-3.32144587035577e-12
-5.69489578166014e-12
-3.1489595889431e-12
-5.63802889306567e-12
-2.96242023856588e-12
-5.59209646663238e-12
-2.76178038527265e-12
-5.55792813757443e-12
-2.5464811180908e-12
-5.53655973600701e-12
-2.31621949307806e-12
-5.52928033052956e-12
-2.07016035448273e-12
-5.5376937668459e-12
-1.8076345705962e-12
-5.56382909208194e-12
-1.52738359359601e-12
-5.61025343164358e-12
-1.22815809771067e-12
-5.68029067579971e-12
-9.07955940611046e-13
-5.77828799966778e-12
-5.6445036405524e-13
-5.91005404285615e-12
-1.94132568264204e-13
-6.08348392742401e-12
2.07587204015627e-13
-6.3095781570586e-12
6.47565859835658e-13
-6.60402092458142e-12
1.13521661962544e-12
-6.99029649878609e-12
1.68496251437553e-12
-7.50338817633499e-12
2.31626990370393e-12
-8.19400247838344e-12
3.04907936239181e-12
-9.07839252634545e-12
3.85561783000592e-12
-9.8743977688586e-12
4.35852989028335e-12
-1.35482815232434e-11
2.18007406479324e-12
-2.88894339155633e-13
3.97402107004111e-11
-2.16971012355454e-12
3.75576742712583e-11
-4.3222239758018e-12
-3.18354884661459e-12
-4.76647661734585e-12
-1.59221414281362e-11
-4.69878117017514e-12
-1.36183562123172e-11
-4.5434100511671e-12
-1.29614995410475e-11
-4.41815243176601e-12
-1.19890025001816e-11
-4.33754689813461e-12
-1.11869517607791e-11
-4.29304575279794e-12
-1.05586878040192e-11
-4.2740419470508e-12
-1.00517201077962e-11
-4.27148089346203e-12
-9.62916018285601e-12
-4.27850724163489e-12
-9.26742429546361e-12
-4.28963515264729e-12
-8.95107410462805e-12
-4.3008912592495e-12
-8.66968651699907e-12
-4.30890050687848e-12
-8.4159983984213e-12
-4.31129722566652e-12
-8.18487117821771e-12
-4.30588829462592e-12
-7.9725984199159e-12
-4.29127050735993e-12
-7.77649919229098e-12
-4.26598753813598e-12
-7.59459572057716e-12
-4.2292715248444e-12
-7.425452178539e-12
-4.1801753998958e-12
-7.26801475482125e-12
-4.11838493411021e-12
-7.12154030401556e-12
-4.04331679656622e-12
-6.98552202431733e-12
-3.95496614956307e-12
-6.85965507354828e-12
-3.85299049131928e-12
-6.74379416020051e-12
-3.73756183675636e-12
-6.63795221133673e-12
-3.60845342433819e-12
-6.54226721865662e-12
-3.46588734587348e-12
-6.45702592654504e-12
-3.30963779577474e-12
-6.38263754114194e-12
-3.13986171891885e-12
-6.31967302416727e-12
-2.95623714648474e-12
-6.26885313878167e-12
-2.75876811467734e-12
-6.2310946835875e-12
-2.54696350789522e-12
-6.20752942544829e-12
-2.32059930175369e-12
-6.19957008828663e-12
-2.07894655812384e-12
-6.20895440310556e-12
-1.82147687978388e-12
-6.2378729717515e-12
-1.54712291401759e-12
-6.28907720177085e-12
-1.2548956756202e-12
-6.36610988791205e-12
-9.431635875814e-13
-6.47356713771361e-12
-6.10132317066058e-13
-6.61755921637087e-12
-2.53075538653347e-13
-6.80634510119268e-12
1.31399477886558e-13
-7.05138842042839e-12
5.48238561695524e-13
-7.36901901490371e-12
1.00349683691444e-12
-7.78339220080837e-12
1.50492773474651e-12
-8.33095523346855e-12
2.05706569470913e-12
-9.06160927440472e-12
2.64482476369356e-12
-9.97838143214217e-12
3.17563724474919e-12
-1.07303972979719e-11
3.30203812685468e-12
-1.40310016780084e-11
1.71570878695818e-12
8.62329832749429e-13
4.11685349372198e-11
-1.801432180471e-12
3.82509229736381e-11
-3.56813247228905e-12
-2.83944726725912e-12
-4.16430224871552e-12
-1.64396549842832e-11
-4.28753182761139e-12
-1.45336357160357e-11
-4.2604279491242e-12
-1.40020377353503e-11
-4.2123898687114e-12
-1.3041535076423e-11
-4.17937457349102e-12
-1.22175089352328e-11
-4.16593721797402e-12
-1.15594294428725e-11
-4.16834639402849e-12
-1.1022163624891e-11
-4.18120194378231e-12
-1.05706569430114e-11
-4.19973329402009e-12
-1.01817232071764e-11
-4.21971849260814e-12
-9.83992654448891e-12
-4.23799202435519e-12
-9.53475758721783e-12
-4.25171052009323e-12
-9.25884889471317e-12
-4.25887919885881e-12
-9.00695540257395e-12
-4.25755823820135e-12
-8.77526962774398e-12
-4.24652752709233e-12
-8.56101968006237e-12
-4.22446436400981e-12
-8.36214544739584e-12
-4.19069857664752e-12
-8.17714906891319e-12
-4.14436243800104e-12
-8.00491516836636e-12
-4.08519882689758e-12
-7.84466316799031e-12
-4.01267835857401e-12
-7.69584925578044e-12
-3.92683407277121e-12
-7.55815639527717e-12
-3.82736466014692e-12
-7.43142205054317e-12
-3.71447518884722e-12
-7.31566982290836e-12
-3.58797314468308e-12
-7.21104825964595e-12
-3.44811501355328e-12
-7.11787234131342e-12
-3.29471283494542e-12
-7.03658663267482e-12
-3.12796317493378e-12
-6.96781676963796e-12
-2.94759566111594e-12
-6.91233783616574e-12
-2.75366522366705e-12
-6.8711507016375e-12
-2.54575138709351e-12
-6.84546618418524e-12
-2.32371484862703e-12
-6.83680306310922e-12
-2.08694026945238e-12
-6.84700692263247e-12
-1.83504088234683e-12
-6.87839854350946e-12
-1.56714796326966e-12
-6.93386040605006e-12
-1.28253993958044e-12
-7.01708281436971e-12
-9.79968894450792e-13
-7.13280073750691e-12
-6.58183075643178e-13
-7.28726885990815e-12
-3.15264963730388e-13
-7.48885605424377e-12
5.09489659946896e-14
-7.74907871324977e-12
4.43415801349205e-13
-8.08416928206772e-12
8.64947397932928e-13
-8.51769469944181e-12
1.31691293692872e-12
-9.08437897103943e-12
1.7920449204149e-12
-9.82775639645488e-12
2.25423908215672e-12
-1.07283981819331e-11
2.59032683879908e-12
-1.1366537563912e-11
2.52401911428397e-12
-1.42942507463068e-11
1.33900188131706e-12
1.64497754248141e-12
4.22456659854316e-11
-1.50864693290408e-12
3.86841903023022e-11
-3.00450977827455e-12
-2.72307881943381e-12
-3.65921262033312e-12
-1.68672059739236e-11
-3.90645497250425e-12
-1.52964934526434e-11
-3.98061535582031e-12
-1.49131677486286e-11
-4.00141444703452e-12
-1.39969291995402e-11
-4.01391553302146e-12
-1.31738836940938e-11
-4.03129936682265e-12
-1.25004099624139e-11
-4.05536418540135e-12
-1.19419378791956e-11
-4.08399466869078e-12
-1.1467482309705e-11
-4.1144030733916e-12
-1.10555088469871e-11
-4.14360412657311e-12
-1.06912834386753e-11
-4.16923260136494e-12
-1.03646090377591e-11
-4.18898137133814e-12
-1.00682554023084e-11
-4.20122144466999e-12
-9.79702287226822e-12
-4.20427100521347e-12
-9.54710409693276e-12
-4.19709395091494e-12
-9.31570043757679e-12
-4.17850456071065e-12
-9.10071658094262e-12
-4.1479336682408e-12
-8.90062155718023e-12
-4.10459501322203e-12
-8.71426073084759e-12
-4.04829222140182e-12
-8.54083035688183e-12
-3.97854958476693e-12
-8.37976023593362e-12
-3.89544534534882e-12
-8.23072364423392e-12
-3.7987181435017e-12
-8.09355037668204e-12
-3.68860910273957e-12
-7.96827187926623e-12
-3.56496516216914e-12
-7.85504945480773e-12
-3.42807639638322e-12
-7.75422572022306e-12
-3.27779805676987e-12
-7.66627614337277e-12
-3.11436860884852e-12
-7.59187654801284e-12
-2.93756846442869e-12
-7.53185234215502e-12
-2.74751092468958e-12
-7.48727531749829e-12
-2.54384877603597e-12
-7.45942542549356e-12
-2.32652912395518e-12
-7.449908453526e-12
-2.09505042902215e-12
-7.46065548363225e-12
-1.84917183162885e-12
-7.49408000391838e-12
-1.58822616962022e-12
-7.55314497039561e-12
-1.31175878442716e-12
-7.64161922648507e-12
-1.01889978887246e-12
-7.76427278173672e-12
-7.08933824126925e-13
-7.92734684842933e-12
-3.80737257991432e-13
-8.13907800333952e-12
-3.33316433987138e-14
-8.4106540125094e-12
3.34378925613504e-13
-8.75755601692338e-12
7.22263264178494e-13
-9.20168165755338e-12
1.12653219840529e-12
-9.77378498237119e-12
1.53197733813337e-12
-1.05081314276158e-11
1.89302009942713e-12
-1.13609032256251e-11
2.09971189540895e-12
-1.18563841852894e-11
1.94904277943474e-12
-1.44547356955624e-11
1.04095578249406e-12
2.17401137399919e-12
4.30376155455135e-11
-1.27907145375676e-12
3.8932661373618e-11
-2.5757789617822e-12
-2.74361483559476e-12
-3.23876793394277e-12
-1.72348598652641e-11
-3.5617317020441e-12
-1.5936280314938e-11
-3.7119045595334e-12
-1.57027632197882e-11
-3.79083640278542e-12
-1.48486068134044e-11
-3.84471366702706e-12
-1.40429323278401e-11
-3.89140529774748e-12
-1.3365901507541e-11
-3.93664297167907e-12
-1.2794350409723e-11
-3.98098617438095e-12
-1.23026044314467e-11
-4.02339562278165e-12
-1.18716588958809e-11
-4.06202177011094e-12
-1.14880478201032e-11
-4.09525127136671e-12
-1.11422317221788e-11
-4.12128975160868e-12
-1.08273324332969e-11
-4.13886082657164e-12
-1.05383362339814e-11
-4.14653848328894e-12
-1.02715239441657e-11
-4.14346607173399e-12
-1.0024135410902e-11
-4.12859243756966e-12
-9.79408325772977e-12
-4.10145281820218e-12
-9.57982581069473e-12
-4.06134139732173e-12
-9.38019389779358e-12
-4.00812573572243e-12
-9.19437028266837e-12
-3.94138587767623e-12
-9.02176871006504e-12
-3.86124588167736e-12
-8.86205616294404e-12
-3.76748746789327e-12
-8.71506061435011e-12
-3.66038867096623e-12
-8.58082157160058e-12
-3.53984116039551e-12
-8.45950838145164e-12
-3.40616951968144e-12
-8.35149615621033e-12
-3.25927473676984e-12
-8.25728386289615e-12
-3.09943924397833e-12
-8.17759375349042e-12
-2.92649753274486e-12
-8.11329567487079e-12
-2.74062236606652e-12
-8.06552120637494e-12
-2.54154147412283e-12
-8.03560822935692e-12
-2.32928894855091e-12
-8.02523197029838e-12
-2.10348076295622e-12
-8.03638268059976e-12
-1.86401964345969e-12
-8.07153555312437e-12
-1.61043201550951e-12
-8.13368872245734e-12
-1.34252600183017e-12
-8.2266167495936e-12
-1.05979339999336e-12
-8.35503352048632e-12
-7.62029192651952e-13
-8.52501993638683e-12
-4.48846095648116e-13
-8.74446947591012e-12
-1.20347102821303e-13
-9.02390905518074e-12
2.22938757824864e-13
-9.37754932114173e-12
5.78452138472375e-13
-9.8248223171723e-12
9.38815819677653e-13
-1.03913253870487e-11
1.28433941455018e-12
-1.11010099736615e-11
1.56766160823644e-12
-1.18882694785542e-11
1.69270871131943e-12
-1.22362249240107e-11
1.51658604344887e-12
-1.45593541923265e-11
8.07913604820083e-13
2.54060918288566e-12
4.36250794960969e-11
-1.09799862936858e-12
3.90379821527553e-11
-2.24094593054179e-12
-2.86842863775373e-12
-2.88800155946297e-12
-1.75820813434731e-11
-3.25404802886312e-12
-1.64997674237438e-11
-3.45875224501654e-12
-1.64048385483136e-11
-3.58470462360612e-12
-1.5620159409329e-11
-3.67470264348025e-12
-1.48424721132316e-11
-3.74828973145312e-12
-1.41709327850333e-11
-3.81362155504681e-12
-1.35931288180361e-11
-3.87324050377703e-12
-1.30891247788695e-11
-3.92753487886135e-12
-1.2642953295762e-11
-3.97563667656314e-12
-1.22428168813142e-11
-4.0166079266545e-12
-1.18801016810736e-11
-4.04912520361554e-12
-1.15484638746968e-11
-4.07224081486995e-12
-1.12431983667892e-11
-4.08476931388827e-12
-1.09607561968076e-11
-4.08602519349596e-12
-1.06984743038247e-11
-4.07509239905031e-12
-1.04543101649961e-11
-4.05160406461343e-12
-1.02267403835331e-11
-4.01493753090431e-12
-1.00145997391898e-11
-3.96502295632938e-12
-9.81707064814466e-12
-3.90149858669107e-12
-9.63355987471123e-12
-3.82453421599746e-12
-9.46373320783356e-12
-3.73395929206022e-12
-9.30742007050022e-12
-3.63009042279612e-12
-9.16467017516596e-12
-3.5128630358023e-12
-9.03566157338562e-12
-3.38264085246375e-12
-8.92079929152131e-12
-3.23937166514835e-12
-8.82060422961163e-12
-3.08338550826102e-12
-8.73583731385792e-12
-2.91457136778894e-12
-8.66741176192621e-12
-2.73316316952251e-12
-8.61650554402031e-12
-2.53896482855398e-12
-8.58450485057313e-12
-2.33209747770514e-12
-8.57313677720603e-12
-2.11228981491152e-12
-8.58443023520185e-12
-1.87958510903344e-12
-8.62088783061653e-12
-1.63369590184717e-12
-8.68550325388307e-12
-1.37467607588969e-12
-8.78199234862158e-12
-1.10235385782299e-12
-8.91493088827634e-12
-8.16987230897253e-13
-9.09011365420476e-12
-5.18844841843047e-13
-9.31491588403772e-12
-2.08959492698233e-13
-9.59894278126906e-12
1.10819215713121e-13
-9.95477276420352e-12
4.361117452186e-13
-1.03988837836937e-11
7.57424726617121e-13
-1.09514054940303e-11
1.0532900453275e-12
-1.16261982461993e-11
1.279167093886e-12
-1.23399542138257e-11
1.35552878983307e-12
-1.25485498852741e-11
1.18397664042662e-12
-1.46480548570879e-11
6.26558834851655e-13
2.78180993216919e-12
4.40452737973658e-11
-9.55150602612251e-13
3.90511217241515e-11
-1.97484248951097e-12
-3.0464879437299e-12
-2.59346164831434e-12
-1.78997642468556e-11
-2.98061936757617e-12
-1.69886674154382e-11
-3.222935060263e-12
-1.70177477099184e-11
-3.38563287081452e-12
-1.63033962054332e-11
-3.50612583831689e-12
-1.55596572483276e-11
-3.60365437523945e-12
-1.49000290817568e-11
-3.68755763690734e-12
-1.43214373293479e-11
-3.76169896984471e-12
-1.38095253906512e-11
-3.82754089009064e-12
-1.33515605540791e-11
-3.88501782015269e-12
-1.29376398052774e-11
-3.93376576013018e-12
-1.25602645748264e-11
-3.97287426734183e-12
-1.22137625527628e-11
-4.00169150703225e-12
-1.18938340130426e-11
-4.01925146030809e-12
-1.15971679239032e-11
-4.0250286948564e-12
-1.132124624803e-11
-4.01823462761674e-12
-1.10641022118554e-11
-3.99859698606381e-12
-1.0824255339632e-11
-3.9655736633541e-12
-1.06005594682718e-11
-3.91915793075695e-12
-1.03922065973354e-11
-3.85904711383031e-12
-1.01986034249389e-11
-3.78545746512044e-12
-1.00194199379785e-11
-3.69826621671415e-12
-9.85448928529937e-12
-3.5978332925475e-12
-9.70386898951911e-12
-3.48413462148084e-12
-9.5677528223113e-12
-3.35758128404052e-12
-9.44656248264063e-12
-3.2181646033817e-12
-9.34084903572036e-12
-3.06626456287829e-12
-9.251399431447e-12
-2.90182718466581e-12
-9.17916765508419e-12
-2.72514783757759e-12
-9.12536726235932e-12
-2.53610476426083e-12
-9.09142437707536e-12
-2.33490592877097e-12
-9.07909893633771e-12
-2.12138875689643e-12
-9.09044117814364e-12
-1.8957294279805e-12
-9.12795061894918e-12
-1.65781358576227e-12
-9.19458167016873e-12
-1.40791713671054e-12
-9.29393831037353e-12
-1.14617120586771e-12
-9.43038561624242e-12
-8.73235869391072e-13
-9.6093352580982e-12
-5.89935502578959e-13
-9.83750860581966e-12
-2.98051833049664e-13
-1.01234114221974e-11
-4.31055663830084e-16
-1.04777730720099e-11
2.97359147984573e-13
-1.09139413328244e-11
5.84804194119811e-13
-1.14467312322786e-11
8.40720842106959e-13
-1.20810666917172e-11
1.02542543333765e-12
-1.27203877950427e-11
1.07515711008659e-12
-1.28031863314237e-11
9.22996761221538e-13
-1.47228161558091e-11
4.84347448585069e-13
2.94456276503942e-12
4.4354225058179e-11
-8.40063148741015e-13
3.89916136532889e-11
-1.75779778567154e-12
-3.27150958037628e-12
-2.34369306229035e-12
-1.82094985208357e-11
-2.73793358532733e-12
-1.74330440889315e-11
-3.00469399550563e-12
-1.75689607635697e-11
-3.19509315082408e-12
-1.6921591890174e-11
-3.34057557830292e-12
-1.62142932383688e-11
-3.45886393226701e-12
-1.5570711999638e-11
-3.55954757240381e-12
-1.49954256877916e-11
-3.64723249913857e-12
-1.44791458766376e-11
-3.72411802190496e-12
-1.40123307853179e-11
-3.7907480810733e-12
-1.35870541167718e-11
-3.84721927349684e-12
-1.31970426435104e-11
-3.89296648128504e-12
-1.28373893552768e-11
-3.92759431320702e-12
-1.25042685031519e-11
-3.95032927712927e-12
-1.21946652599511e-11
-3.96079267869473e-12
-1.19062410145108e-11
-3.95831239281406e-12
-1.16371362508831e-11
-3.94270538116831e-12
-1.13859320653881e-11
-3.9135074747034e-12
-1.11515169318657e-11
-3.87077429747586e-12
-1.09330999999422e-11
-3.81426011183669e-12
-1.07300984304182e-11
-3.74422937225101e-12
-1.05421875010203e-11
-3.66060886683642e-12
-1.03692085215356e-11
-3.56380116545408e-12
-1.02112263922085e-11
-3.45382731537714e-12
-1.00684539985245e-11
-3.33114265606589e-12
-9.94132324082577e-12
-3.19578941887222e-12
-9.83041518171612e-12
-3.04819310736733e-12
-9.73654046899538e-12
-2.88836118036008e-12
-9.66068430185253e-12