/*--------------------------------*- C++ -*----------------------------------*\
  =========                 |
  \\      /  F ield         | OpenFOAM: The Open Source CFD Toolbox
   \\    /   O peration     | Website:  https://openfoam.org
    \\  /    A nd           | Version:  10
     \\/     M anipulation  |
\*---------------------------------------------------------------------------*/
FoamFile
{
    format      ascii;
    class       volScalarField;
    location    "0.6";
    object      rho;
}
// * * * * * * * * * * * * * * * * * * * * * * * * * * * * * * * * * * * * * //

dimensions      [1 -3 0 0 0 0 0];

internalField   nonuniform List<scalar> 
2500
(
1.14618262094549
1.14673523000824
1.14678026283995
1.14678261526285
1.14678272987023
1.14678273993562
1.14678274292016
1.14678274628246
1.14678274990775
1.14678275151731
1.14678275415753
1.14678275598929
1.14678275713436
1.14678275863039
1.14678276000653
1.14678276159469
1.14678276237999
1.14678276353334
1.14678276470779
1.14678276538257
1.14678276643217
1.14678277115866
1.14678277556979
1.14678277189732
1.14678276820864
1.14678277261333
1.14678277307962
1.14678277300243
1.14678277657294
1.14678277332061
1.14678277274906
1.14678277251311
1.14678277212954
1.14678277174564
1.1467827684827
1.14678276796343
1.146782767323
1.14678276679496
1.14678276587614
1.14678276495622
1.14678276379767
1.14678276251915
1.14678276101904
1.14678275971971
1.14678275610013
1.14678274420542
1.14678258926768
1.14677989845248
1.14673382133211
1.1461820590251
1.15733190001257
1.15771291605225
1.15790185500992
1.15791343131363
1.1579141050164
1.15791414798988
1.15791415117443
1.15791415197112
1.15791415259305
1.15791415292503
1.15791415338115
1.15791415375354
1.15791415395575
1.15791415412366
1.15791415430409
1.15791415456251
1.15791415473075
1.15791415494467
1.1579141551385
1.15791415533441
1.15791415848658
1.15791415935142
1.15791415974252
1.15791415914404
1.15791415590609
1.15791415930397
1.1579141593791
1.15791415939241
1.15791416233861
1.15791416166347
1.15791415911866
1.1579141587127
1.15791415880399
1.15791415628284
1.15791415577177
1.1579141556507
1.15791415553151
1.15791415543601
1.15791415531395
1.1579141551747
1.15791415496555
1.15791415473619
1.15791415441662
1.15791415345419
1.15791414597154
1.15791407576835
1.15791325590312
1.15790141095759
1.15771093206311
1.15729943018893
1.16042820531507
1.16056744177221
1.1606356838826
1.16064467225141
1.16064524678904
1.1606452844555
1.16064528708271
1.16064528740503
1.16064528755284
1.16064528765384
1.1606452877783
1.16064528829589
1.16064528838969
1.16064528804982
1.16064528810746
1.16064528820524
1.16064528829244
1.16064528839803
1.16064528849236
1.16064528859939
1.16064528965214
1.16064528969769
1.1606452894399
1.16064528977158
1.16064528948643
1.16064529002624
1.16064529043482
1.16064529014647
1.16064529049123
1.16064529045588
1.16064528966977
1.16064529015113
1.16064529046625
1.16064528984246
1.16064528942591
1.16064528942227
1.16064528942739
1.16064528944247
1.16064528945548
1.16064528945898
1.16064528944948
1.16064528943319
1.16064528937462
1.16064528895014
1.16064528494242
1.16064524235034
1.16064468925316
1.16063625844353
1.16056763332017
1.16040606983831
1.16113288841148
1.16117074812575
1.16118188565534
1.16118452597276
1.16118472874236
1.16118474325042
1.16118474432388
1.16118474445255
1.16118474452225
1.16118474458449
1.16118474465811
1.16118474487939
1.16118474501705
1.1611847449642
1.16118474495426
1.161184745038
1.16118474512626
1.16118474531135
1.16118474540325
1.16118474549389
1.16118474572071
1.16118474578263
1.16118474583162
1.16118474596361
1.16118474598061
1.16118474604827
1.16118474616658
1.16118474618863
1.16118474640378
1.16118474644553
1.16118474637762
1.16118474651158
1.16118474656299
1.16118474659554
1.16118474666193
1.16118474664172
1.16118474662169
1.1611847466656
1.16118474670823
1.16118474674606
1.16118474677876
1.16118474680678
1.16118474682303
1.16118474675173
1.16118474580235
1.16118473438597
1.16118457096424
1.1611820661112
1.16117090380075
1.16112498119222
1.16127645780743
1.16128524772484
1.1612868882055
1.16128749915255
1.16128755405204
1.16128755837975
1.16128755874214
1.16128755881173
1.16128755886803
1.16128755892745
1.16128755900697
1.1612875590985
1.16128755918124
1.16128755923849
1.16128755929213
1.16128755937552
1.1612875594629
1.16128755958585
1.16128755967296
1.16128755976858
1.16128755987196
1.16128755996503
1.16128756004589
1.16128756012844
1.16128756022256
1.16128756030931
1.16128756039972
1.16128756049458
1.16128756059617
1.16128756065179
1.16128756071284
1.1612875608059
1.1612875608612
1.16128756092676
1.1612875610032
1.16128756103863
1.16128756107392
1.16128756112595
1.16128756117511
1.16128756122032
1.16128756126121
1.16128756129789
1.16128756132884
1.16128756133738
1.16128756114573
1.16128755847749
1.16128751860389
1.16128692427813
1.16128531890524
1.16127429690699
1.16130368827844
1.16130553532977
1.16130577178233
1.16130589689729
1.16130590973603
1.16130591086373
1.16130591099086
1.16130591104399
1.16130591109774
1.16130591115664
1.16130591122579
1.161305911297
1.1613059113727
1.16130591144692
1.16130591152179
1.16130591160573
1.16130591169271
1.16130591178994
1.16130591188249
1.16130591197547
1.16130591206832
1.16130591215846
1.16130591224499
1.16130591233565
1.16130591243086
1.16130591251917
1.16130591260504
1.16130591269496
1.16130591278094
1.1613059128582
1.16130591293523
1.16130591301254
1.16130591308234
1.16130591315142
1.16130591322042
1.16130591327636
1.16130591332957
1.16130591338365
1.16130591343412
1.16130591348063
1.16130591352305
1.16130591356133
1.16130591359506
1.16130591362075
1.16130591360136
1.16130591305001
1.1613059044337
1.16130577914993
1.16130556109296
1.16130318202404
1.16130858655753
1.16130894868597
1.1613089835738
1.16130900736126
1.16130901010943
1.1613090103957
1.16130901045752
1.16130901050603
1.16130901055908
1.16130901061767
1.16130901068273
1.16130901075173
1.1613090108255
1.16130901090229
1.16130901098194
1.16130901106585
1.16130901115244
1.16130901124282
1.16130901133389
1.16130901142489
1.161309011517
1.16130901160885
1.16130901169969
1.16130901179111
1.16130901188293
1.16130901197196
1.1613090120589
1.16130901214576
1.16130901222947
1.16130901231016
1.16130901238822
1.16130901246394
1.16130901253575
1.16130901260481
1.1613090126711
1.16130901273181
1.16130901278904
1.1613090128434
1.16130901289393
1.1613090129405
1.16130901298305
1.1613090130215
1.16130901305567
1.1613090130848
1.16130901310156
1.16130901300953
1.16130901130793
1.16130898689122
1.16130895800952
1.16130848079069
1.16130941938678
1.16130948684416
1.16130949225424
1.16130949656738
1.16130949713567
1.16130949722399
1.1613094972694
1.16130949731651
1.16130949736918
1.16130949742747
1.16130949749129
1.16130949755979
1.16130949763285
1.16130949770975
1.16130949779003
1.16130949787359
1.16130949795972
1.16130949804826
1.16130949813825
1.16130949822903
1.16130949832067
1.16130949841244
1.16130949850387
1.16130949859505
1.1613094986854
1.16130949877424
1.16130949886142
1.16130949894692
1.16130949903005
1.16130949911068
1.16130949918866
1.16130949926378
1.16130949933556
1.16130949940423
1.16130949946958
1.16130949953099
1.1613094995888
1.161309499643
1.16130949969325
1.16130949973956
1.16130949978193
1.16130949982023
1.16130949985436
1.16130949988409
1.16130949990794
1.16130949990787
1.16130949960305
1.16130949511601
1.16130949130335
1.16130940059952
1.16130954032454
1.16130955240706
1.1613095532999
1.16130955406778
1.16130955419756
1.16130955424262
1.16130955428401
1.16130955433055
1.16130955438289
1.16130955444084
1.1613095545041
1.16130955457221
1.16130955464476
1.16130955472129
1.16130955480131
1.16130955488436
1.16130955496997
1.1613095550577
1.16130955514699
1.16130955523734
1.1613095553284
1.16130955541968
1.16130955551076
1.16130955560134
1.16130955569099
1.16130955577934
1.16130955586607
1.1613095559509
1.1613095560335
1.16130955611365
1.16130955619114
1.16130955626573
1.16130955633717
1.16130955640538
1.16130955647019
1.16130955653138
1.16130955658893
1.16130955664274
1.16130955669269
1.16130955673874
1.16130955678084
1.16130955681891
1.16130955685288
1.16130955688262
1.16130955690777
1.16130955692504
1.16130955688445
1.16130955610391
1.1613095555973
1.16130953905853
1.16130954025752
1.16130954235687
1.16130954251842
1.16130954266517
1.16130954271105
1.16130954274698
1.16130954278725
1.16130954283341
1.1613095428854
1.16130954294298
1.1613095430058
1.16130954307346
1.16130954314553
1.16130954322155
1.16130954330105
1.16130954338355
1.16130954346858
1.16130954355566
1.16130954364431
1.16130954373406
1.16130954382448
1.16130954391514
1.16130954400563
1.16130954409557
1.16130954418458
1.1613095442723
1.16130954435842
1.16130954444264
1.16130954452467
1.16130954460426
1.16130954468118
1.16130954475521
1.16130954482615
1.16130954489385
1.16130954495816
1.16130954501892
1.16130954507605
1.16130954512944
1.16130954517902
1.16130954522473
1.16130954526651
1.16130954530431
1.16130954533807
1.16130954536767
1.16130954539299
1.16130954541339
1.1613095454204
1.16130954529834
1.16130954523475
1.16130954231977
1.16130952010282
1.16130952046028
1.16130952049794
1.1613095205388
1.16130952056906
1.16130952060295
1.16130952064274
1.16130952068855
1.16130952074018
1.16130952079735
1.16130952085972
1.16130952092689
1.16130952099844
1.1613095210739
1.16130952115281
1.16130952123469
1.16130952131907
1.16130952140548
1.16130952149345
1.16130952158252
1.16130952167225
1.16130952176223
1.16130952185203
1.16130952194127
1.16130952202959
1.16130952211663
1.16130952220208
1.16130952228564
1.16130952236703
1.16130952244599
1.16130952252229
1.16130952259573
1.1613095226661
1.16130952273325
1.16130952279702
1.16130952285728
1.16130952291393
1.16130952296686
1.16130952301602
1.16130952306134
1.16130952310277
1.16130952314027
1.16130952317376
1.16130952320318
1.16130952322842
1.16130952324932
1.1613095232646
1.16130952325541
1.16130952325321
1.16130952275653
1.16130949667923
1.16130949674075
1.16130949675683
1.1613094967799
1.16130949680717
1.16130949684044
1.16130949687987
1.16130949692533
1.16130949697657
1.16130949703331
1.1613094970952
1.16130949716184
1.16130949723281
1.16130949730767
1.16130949738593
1.16130949746715
1.16130949755083
1.16130949763653
1.16130949772376
1.16130949781209
1.16130949790108
1.1613094979903
1.16130949807935
1.16130949816785
1.16130949825542
1.16130949834173
1.16130949842646
1.16130949850931
1.16130949859
1.16130949866828
1.16130949874392
1.16130949881671
1.16130949888647
1.16130949895302
1.16130949901621
1.16130949907592
1.16130949913205
1.16130949918449
1.16130949923319
1.16130949927808
1.16130949931913
1.16130949935627
1.16130949938947
1.16130949941866
1.16130949944374
1.16130949946465
1.16130949948128
1.16130949949086
1.1613094994975
1.16130949941829
1.16130947273487
1.1613094727473
1.16130947275961
1.16130947277964
1.16130947280619
1.16130947283911
1.16130947287822
1.16130947292331
1.16130947297415
1.16130947303042
1.1613094730918
1.16130947315788
1.16130947322824
1.16130947330244
1.16130947338002
1.16130947346051
1.16130947354345
1.16130947362838
1.16130947371483
1.16130947380237
1.16130947389056
1.16130947397897
1.16130947406722
1.16130947415492
1.16130947424169
1.16130947432722
1.16130947441117
1.16130947449326
1.1613094745732
1.16130947465075
1.16130947472569
1.16130947479779
1.16130947486688
1.16130947493279
1.16130947499536
1.16130947505449
1.16130947511006
1.16130947516197
1.16130947521017
1.1613094752546
1.16130947529522
1.16130947533198
1.16130947536485
1.16130947539376
1.16130947541863
1.16130947543942
1.16130947545619
1.16130947546875
1.16130947547662
1.16130947546773
1.16130944871133
1.16130944871588
1.16130944872756
1.161309448747
1.16130944877325
1.16130944880589
1.16130944884467
1.16130944888939
1.1613094489398
1.16130944899559
1.16130944905642
1.1613094491219
1.16130944919161
1.16130944926511
1.16130944934196
1.16130944942169
1.16130944950383
1.16130944958795
1.16130944967357
1.16130944976027
1.1613094498476
1.16130944993517
1.16130945002256
1.16130945010941
1.16130945019534
1.16130945028003
1.16130945036316
1.16130945044444
1.16130945052359
1.16130945060037
1.16130945067455
1.16130945074592
1.1613094508143
1.16130945087953
1.16130945094146
1.16130945099996
1.16130945105493
1.16130945110628
1.16130945115395
1.16130945119788
1.16130945123804
1.16130945127439
1.16130945130689
1.16130945133548
1.16130945136009
1.16130945138069
1.16130945139736
1.16130945141027
1.16130945141818
1.16130945142078
1.16130942467845
1.16130942468189
1.16130942469353
1.16130942471279
1.16130942473882
1.16130942477119
1.16130942480965
1.16130942485399
1.16130942490395
1.16130942495923
1.16130942501949
1.16130942508434
1.16130942515336
1.16130942522614
1.16130942530221
1.16130942538113
1.16130942546244
1.1613094255457
1.16130942563044
1.16130942571625
1.16130942580269
1.16130942588936
1.16130942597585
1.1613094260618
1.16130942614684
1.16130942623065
1.16130942631291
1.16130942639334
1.16130942647166
1.16130942654762
1.161309426621
1.16130942669161
1.16130942675925
1.16130942682375
1.16130942688499
1.16130942694283
1.16130942699717
1.16130942704793
1.16130942709504
1.16130942713844
1.16130942717811
1.161309427214
1.1613094272461
1.16130942727433
1.16130942729865
1.16130942731901
1.16130942733549
1.1613094273483
1.16130942735602
1.16130942736031
1.1613094006469
1.16130940065032
1.16130940066203
1.16130940068119
1.16130940070703
1.16130940073914
1.16130940077728
1.16130940082123
1.16130940087073
1.16130940092548
1.16130940098514
1.16130940104933
1.16130940111764
1.16130940118964
1.1613094012649
1.16130940134298
1.16130940142342
1.16130940150577
1.1613094015896
1.16130940167448
1.16130940175998
1.1613094018457
1.16130940193125
1.16130940201626
1.16130940210038
1.16130940218327
1.16130940226462
1.16130940234415
1.1613094024216
1.16130940249671
1.16130940256926
1.16130940263906
1.16130940270591
1.16130940276967
1.16130940283018
1.16130940288733
1.16130940294101
1.16130940299114
1.16130940303766
1.16130940308051
1.16130940311965
1.16130940315507
1.16130940318672
1.16130940321456
1.16130940323854
1.16130940325862
1.16130940327486
1.16130940328746
1.16130940329493
1.1613094032993
1.16130937661811
1.16130937662171
1.16130937663352
1.16130937665261
1.16130937667827
1.16130937671013
1.16130937674795
1.1613093767915
1.16130937684053
1.16130937689473
1.16130937695376
1.16130937701726
1.16130937708482
1.16130937715603
1.16130937723045
1.16130937730764
1.16130937738717
1.16130937746859
1.16130937755146
1.16130937763537
1.1613093777199
1.16130937780464
1.16130937788921
1.16130937797324
1.16130937805638
1.16130937813832
1.16130937821872
1.16130937829733
1.16130937837386
1.16130937844808
1.16130937851977
1.16130937858873
1.16130937865477
1.16130937871774
1.1613093787775
1.16130937883393
1.16130937888692
1.1613093789364
1.16130937898229
1.16130937902455
1.16130937906315
1.16130937909805
1.16130937912923
1.16130937915665
1.16130937918026
1.16130937920001
1.16130937921598
1.16130937922831
1.1613093792355
1.16130937923967
1.161309352592
1.1613093525958
1.16130935260773
1.16130935262676
1.16130935265226
1.16130935268387
1.16130935272136
1.1613093527645
1.16130935281304
1.16130935286667
1.16130935292507
1.16130935298785
1.16130935305464
1.16130935312502
1.16130935319857
1.16130935327485
1.16130935335343
1.16130935343388
1.16130935351577
1.16130935359868
1.16130935368219
1.16130935376592
1.16130935384947
1.16130935393249
1.16130935401463
1.16130935409557
1.161309354175
1.16130935425264
1.16130935432823
1.16130935440154
1.16130935447233
1.16130935454042
1.16130935460562
1.16130935466778
1.16130935472676
1.16130935478244
1.16130935483472
1.16130935488351
1.16130935492876
1.16130935497041
1.16130935500843
1.1613093550428
1.16130935507348
1.16130935510044
1.16130935512364
1.16130935514304
1.16130935515869
1.16130935517073
1.1613093551776
1.16130935518152
1.16130932856831
1.16130932857233
1.16130932858439
1.16130932860338
1.16130932862872
1.16130932866008
1.16130932869725
1.16130932873997
1.16130932878801
1.16130932884106
1.16130932889879
1.16130932896085
1.16130932902684
1.16130932909637
1.16130932916901
1.16130932924436
1.16130932932197
1.16130932940142
1.16130932948229
1.16130932956416
1.16130932964664
1.16130932972932
1.16130932981183
1.16130932989381
1.16130932997491
1.16130933005483
1.16130933013325
1.1613093302099
1.16130933028452
1.16130933035688
1.16130933042675
1.16130933049394
1.16130933055827
1.1613093306196
1.16130933067777
1.16130933073268
1.16130933078422
1.16130933083231
1.16130933087689
1.16130933091791
1.16130933095533
1.16130933098913
1.16130933101929
1.16130933104577
1.16130933106853
1.16130933108754
1.16130933110285
1.16130933111456
1.1613093311211
1.16130933112475
1.16130930454669
1.16130930455093
1.16130930456312
1.16130930458207
1.16130930460725
1.16130930463837
1.1613093046752
1.16130930471751
1.16130930476503
1.16130930481749
1.16130930487454
1.16130930493585
1.16130930500102
1.16130930506968
1.1613093051414
1.16130930521578
1.1613093052924
1.16130930537083
1.16130930545065
1.16130930553147
1.16130930561288
1.16130930569449
1.16130930577593
1.16130930585684
1.16130930593689
1.16130930601576
1.16130930609315
1.16130930616879
1.16130930624241
1.16130930631379
1.16130930638271
1.16130930644899
1.16130930651243
1.1613093065729
1.16130930663025
1.16130930668436
1.16130930673515
1.16130930678251
1.16130930682641
1.16130930686677
1.16130930690357
1.16130930693679
1.1613093069664
1.16130930699237
1.16130930701467
1.16130930703327
1.16130930704821
1.16130930705957
1.16130930706576
1.16130930706912
1.16130928052683
1.1613092805313
1.16130928054363
1.16130928056255
1.16130928058757
1.16130928061845
1.16130928065494
1.16130928069682
1.16130928074382
1.16130928079567
1.16130928085203
1.16130928091257
1.16130928097692
1.16130928104468
1.16130928111546
1.16130928118886
1.16130928126446
1.16130928134185
1.16130928142061
1.16130928150035
1.16130928158067
1.16130928166118
1.16130928174153
1.16130928182136
1.16130928190033
1.16130928197813
1.16130928205446
1.16130928212906
1.16130928220167
1.16130928227206
1.16130928234002
1.16130928240535
1.16130928246789
1.16130928252748
1.16130928258398
1.16130928263729
1.1613092826873
1.16130928273393
1.16130928277711
1.16130928281681
1.16130928285297
1.16130928288559
1.16130928291463
1.16130928294007
1.16130928296188
1.16130928298005
1.16130928299461
1.16130928300559
1.16130928301142
1.16130928301449
1.16130925650835
1.16130925651304
1.16130925652551
1.16130925654439
1.16130925656927
1.16130925659989
1.16130925663604
1.16130925667749
1.16130925672396
1.16130925677519
1.16130925683085
1.16130925689061
1.16130925695411
1.16130925702097
1.1613092570908
1.1613092571632
1.16130925723777
1.16130925731409
1.16130925739178
1.16130925747042
1.16130925754963
1.16130925762904
1.16130925770828
1.161309257787
1.16130925786487
1.16130925794159
1.16130925801685
1.1613092580904
1.16130925816198
1.16130925823136
1.16130925829834
1.16130925836272
1.16130925842433
1.16130925848303
1.16130925853868
1.16130925859116
1.16130925864038
1.16130925868626
1.16130925872873
1.16130925876774
1.16130925880325
1.16130925883525
1.1613092588637
1.1613092588886
1.16130925890991
1.16130925892762
1.16130925894177
1.16130925895237
1.16130925895782
1.16130925896059
1.16130923249093
1.16130923249585
1.16130923250846
1.16130923252731
1.16130923255203
1.1613092325824
1.16130923261821
1.16130923265922
1.16130923270516
1.16130923275576
1.16130923281071
1.16130923286968
1.16130923293232
1.16130923299827
1.16130923306713
1.16130923313852
1.16130923321204
1.1613092332873
1.16130923336389
1.16130923344143
1.16130923351952
1.16130923359781
1.16130923367592
1.16130923375353
1.16130923383029
1.16130923390591
1.16130923398009
1.16130923405257
1.16130923412311
1.16130923419147
1.16130923425745
1.16130923432087
1.16130923438155
1.16130923443934
1.16130923449412
1.16130923454577
1.16130923459419
1.16130923463931
1.16130923468105
1.16130923471936
1.16130923475421
1.16130923478558
1.16130923481344
1.16130923483777
1.16130923485857
1.16130923487582
1.16130923488954
1.16130923489974
1.1613092349048
1.16130923490727
1.16130920847418
1.16130920847932
1.16130920849207
1.16130920851089
1.16130920853545
1.16130920856557
1.16130920860102
1.16130920864158
1.16130920868698
1.16130920873695
1.16130920879118
1.16130920884936
1.16130920891114
1.16130920897616
1.16130920904405
1.16130920911442
1.1613092091869
1.16130920926107
1.16130920933656
1.16130920941299
1.16130920948996
1.16130920956711
1.1613092096441
1.16130920972058
1.16130920979622
1.16130920987073
1.16130920994383
1.16130921001524
1.16130921008472
1.16130921015206
1.16130921021704
1.16130921027948
1.16130921033922
1.16130921039611
1.16130921045001
1.16130921050082
1.16130921054843
1.16130921059278
1.16130921063378
1.16130921067139
1.16130921070557
1.1613092107363
1.16130921076355
1.16130921078732
1.16130921080759
1.16130921082436
1.16130921083765
1.16130921084744
1.16130921085211
1.16130921085427
1.16130918445778
1.16130918446315
1.16130918447604
1.16130918449482
1.16130918451922
1.16130918454908
1.16130918458418
1.16130918462429
1.16130918466914
1.16130918471847
1.16130918477198
1.16130918482936
1.16130918489027
1.16130918495436
1.16130918502128
1.16130918509063
1.16130918516205
1.16130918523514
1.16130918530953
1.16130918538483
1.16130918546068
1.1613091855367
1.16130918561255
1.1613091856879
1.16130918576242
1.16130918583583
1.16130918590782
1.16130918597816
1.16130918604659
1.16130918611289
1.16130918617687
1.16130918623833
1.16130918629713
1.1613091863531
1.16130918640612
1.16130918645609
1.16130918650289
1.16130918654646
1.16130918658672
1.16130918662363
1.16130918665713
1.16130918668722
1.16130918671386
1.16130918673705
1.16130918675679
1.16130918677307
1.16130918678593
1.1613091867953
1.16130918679958
1.16130918680143
1.16130916044135
1.16130916044693
1.16130916045995
1.16130916047868
1.16130916050292
1.16130916053251
1.16130916056725
1.1613091606069
1.16130916065121
1.1613091606999
1.16130916075268
1.16130916080926
1.1613091608693
1.16130916093247
1.1613091609984
1.16130916106674
1.1613091611371
1.16130916120912
1.1613091612824
1.16130916135659
1.1613091614313
1.16130916150619
1.16130916158091
1.16130916165513
1.16130916172854
1.16130916180083
1.16130916187174
1.161309161941
1.16130916200837
1.16130916207364
1.16130916213661
1.16130916219711
1.16130916225495
1.16130916231001
1.16130916236216
1.16130916241128
1.16130916245727
1.16130916250007
1.16130916253959
1.16130916257578
1.16130916260861
1.16130916263805
1.16130916266408
1.16130916268669
1.16130916270589
1.16130916272169
1.16130916273411
1.16130916274307
1.16130916274695
1.16130916274849
1.16130913642456
1.16130913643036
1.16130913644351
1.16130913646219
1.16130913648624
1.16130913651556
1.16130913654994
1.16130913658913
1.16130913663288
1.16130913668093
1.16130913673299
1.16130913678877
1.16130913684795
1.16130913691019
1.16130913697515
1.16130913704247
1.16130913711179
1.16130913718272
1.16130913725491
1.16130913732798
1.16130913740158
1.16130913747534
1.16130913754893
1.16130913762203
1.16130913769432
1.16130913776551
1.16130913783532
1.16130913790351
1.16130913796983
1.16130913803408
1.16130913809605
1.16130913815557
1.16130913821248
1.16130913826663
1.1613091383179
1.16130913836617
1.16130913841136
1.16130913845338
1.16130913849216
1.16130913852765
1.16130913855981
1.1613091385886
1.16130913861402
1.16130913863606
1.16130913865473
1.16130913867004
1.16130913868202
1.16130913869057
1.16130913869405
1.16130913869529
1.16130911240704
1.16130911241304
1.16130911242629
1.16130911244491
1.16130911246878
1.16130911249782
1.16130911253183
1.16130911257055
1.16130911261375
1.16130911266116
1.1613091127125
1.16130911276748
1.16130911282579
1.16130911288712
1.16130911295112
1.16130911301743
1.1613091130857
1.16130911315557
1.16130911322667
1.16130911329864
1.16130911337112
1.16130911344377
1.16130911351624
1.16130911358823
1.16130911365941
1.1613091137295
1.16130911379824
1.16130911386537
1.16130911393065
1.16130911399388
1.16130911405486
1.16130911411341
1.16130911416938
1.16130911422263
1.16130911427303
1.16130911432048
1.16130911436486
1.16130911440612
1.16130911444417
1.16130911447896
1.16130911451044
1.1613091145386
1.16130911456341
1.16130911458488
1.16130911460302
1.16130911461786
1.16130911462941
1.16130911463754
1.16130911464063
1.16130911464156
1.16130908838845
1.16130908839465
1.16130908840801
1.16130908842656
1.16130908845024
1.16130908847899
1.16130908851262
1.16130908855088
1.16130908859352
1.16130908864028
1.1613090886909
1.1613090887451
1.16130908880256
1.16130908886298
1.16130908892602
1.16130908899134
1.16130908905858
1.16130908912739
1.16130908919742
1.1613090892683
1.16130908933968
1.16130908941122
1.16130908948259
1.16130908955348
1.16130908962357
1.16130908969258
1.16130908976025
1.16130908982633
1.16130908989058
1.1613090899528
1.1613090900128
1.16130909007041
1.16130909012545
1.16130909017781
1.16130909022736
1.16130909027397
1.16130909031757
1.16130909035807
1.16130909039539
1.16130909042949
1.16130909046032
1.16130909048785
1.16130909051206
1.16130909053297
1.16130909055059
1.16130909056496
1.16130909057608
1.16130909058382
1.16130909058653
1.16130909058716
1.16130906436844
1.16130906437483
1.16130906438827
1.16130906440674
1.16130906443021
1.16130906445866
1.1613090644919
1.16130906452969
1.16130906457177
1.1613090646179
1.16130906466781
1.16130906472122
1.16130906477785
1.16130906483737
1.16130906489947
1.16130906496381
1.16130906503004
1.16130906509782
1.16130906516678
1.16130906523659
1.16130906530689
1.16130906537735
1.16130906544763
1.16130906551743
1.16130906558645
1.1613090656544
1.16130906572102
1.16130906578606
1.16130906584931
1.16130906591054
1.16130906596957
1.16130906602624
1.16130906608038
1.16130906613186
1.16130906618056
1.16130906622637
1.16130906626919
1.16130906630894
1.16130906634556
1.16130906637898
1.16130906640916
1.16130906643607
1.1613090664597
1.16130906648006
1.16130906649717
1.16130906651109
1.16130906652181
1.16130906652916
1.1613090665315
1.16130906653183
1.16130904034671
1.16130904035327
1.16130904036679
1.16130904038516
1.16130904040841
1.16130904043655
1.16130904046939
1.16130904050671
1.16130904054823
1.16130904059373
1.16130904064294
1.16130904069558
1.16130904075137
1.16130904081002
1.16130904087119
1.16130904093457
1.16130904099981
1.16130904106657
1.1613090411345
1.16130904120326
1.1613090412725
1.16130904134189
1.16130904141111
1.16130904147985
1.16130904154781
1.16130904161472
1.16130904168031
1.16130904174435
1.1613090418066
1.16130904186686
1.16130904192495
1.1613090419807
1.16130904203395
1.16130904208457
1.16130904213245
1.16130904217746
1.16130904221952
1.16130904225854
1.16130904229446
1.16130904232722
1.16130904235676
1.16130904238307
1.16130904240614
1.16130904242597
1.1613090424426
1.16130904245607
1.1613090424664
1.16130904247339
1.16130904247537
1.16130904247542
1.16130901632288
1.1613090163296
1.16130901634318
1.16130901636143
1.16130901638445
1.16130901641226
1.1613090164447
1.16130901648154
1.16130901652251
1.16130901656738
1.1613090166159
1.16130901666778
1.16130901672277
1.16130901678055
1.16130901684082
1.16130901690326
1.16130901696753
1.1613090170333
1.16130901710022
1.16130901716795
1.16130901723616
1.16130901730451
1.16130901737269
1.1613090174404
1.16130901750733
1.16130901757322
1.16130901763781
1.16130901770086
1.16130901776214
1.16130901782146
1.16130901787863
1.16130901793348
1.16130901798587
1.16130901803565
1.16130901808272
1.16130901812696
1.16130901816827
1.16130901820659
1.16130901824183
1.16130901827394
1.16130901830288
1.1613090183286
1.16130901835112
1.16130901837044
1.16130901838661
1.16130901839967
1.16130901840963
1.16130901841627
1.16130901841791
1.16130901841769
1.16130899229669
1.16130899230356
1.16130899231718
1.16130899233529
1.16130899235805
1.16130899238553
1.16130899241756
1.16130899245391
1.16130899249433
1.16130899253859
1.16130899258642
1.16130899263756
1.16130899269176
1.1613089927487
1.16130899280809
1.16130899286962
1.16130899293295
1.16130899299775
1.16130899306369
1.16130899313042
1.16130899319762
1.16130899326497
1.16130899333214
1.16130899339884
1.16130899346478
1.16130899352968
1.16130899359329
1.16130899365538
1.16130899371572
1.16130899377412
1.16130899383039
1.16130899388438
1.16130899393592
1.16130899398489
1.16130899403118
1.16130899407466
1.16130899411526
1.16130899415289
1.16130899418748
1.16130899421896
1.16130899424731
1.16130899427248
1.16130899429447
1.1613089943133
1.16130899432903
1.16130899434171
1.16130899435133
1.16130899435765
1.16130899435897
1.1613089943585
1.16130896826779
1.16130896827479
1.16130896828842
1.16130896830637
1.16130896832886
1.16130896835599
1.1613089683876
1.16130896842346
1.16130896846333
1.16130896850698
1.16130896855414
1.16130896860457
1.16130896865799
1.16130896871412
1.16130896877266
1.1613089688333
1.16130896889572
1.16130896895959
1.16130896902457
1.16130896909034
1.16130896915657
1.16130896922294
1.16130896928914
1.16130896935486
1.16130896941983
1.16130896948378
1.16130896954645
1.16130896960761
1.16130896966704
1.16130896972455
1.16130896977996
1.1613089698331
1.16130896988383
1.16130896993202
1.16130896997755
1.16130897002031
1.16130897006022
1.16130897009718
1.16130897013114
1.16130897016203
1.1613089701898
1.16130897021444
1.16130897023593
1.16130897025431
1.16130897026963
1.16130897028196
1.16130897029128
1.16130897029731
1.16130897029834
1.16130897029761
1.16130894423593
1.16130894424304
1.16130894425667
1.16130894427443
1.16130894429662
1.16130894432337
1.16130894435455
1.16130894438993
1.16130894442926
1.1613089444723
1.16130894451881
1.16130894456854
1.16130894462122
1.16130894467656
1.16130894473428
1.16130894479406
1.1613089448556
1.16130894491857
1.16130894498264
1.16130894504748
1.16130894511277
1.1613089451782
1.16130894524346
1.16130894530825
1.16130894537229
1.16130894543531
1.16130894549707
1.16130894555734
1.1613089456159
1.16130894567256
1.16130894572713
1.16130894577947
1.16130894582942
1.16130894587685
1.16130894592165
1.16130894596371