/*--------------------------------*- C++ -*----------------------------------*\
  =========                 |
  \\      /  F ield         | OpenFOAM: The Open Source CFD Toolbox
   \\    /   O peration     | Website:  https://openfoam.org
    \\  /    A nd           | Version:  10
     \\/     M anipulation  |
\*---------------------------------------------------------------------------*/
FoamFile
{
    format      ascii;
    class       volScalarField;
    location    "0.6";
    object      T;
}
// * * * * * * * * * * * * * * * * * * * * * * * * * * * * * * * * * * * * * //

dimensions      [0 0 0 1 0 0 0];

internalField   nonuniform List<scalar> 
2500
(
303.95935409721
303.812876763621
303.800946360725
303.800323173017
303.800292819825
303.800290162866
303.800289383232
303.800288505056
303.800287558741
303.800287147911
303.800286465454
303.800285998486
303.800285714634
303.800285338887
303.800284995849
303.800284597466
303.800284412457
303.800284130505
303.800283843396
303.800283688963
303.800283435416
303.800282207875
303.800281063834
303.800282061111
303.800283062435
303.800281919359
303.800281819197
303.800281862496
303.800280938877
303.800281822076
303.800281994376
303.800282076992
303.800282197885
303.80028231799
303.800283199877
303.800283353971
303.800283539177
303.800283693594
303.800283950497
303.800284206628
303.800284524888
303.800284873815
303.800285280286
303.800285632351
303.800286597786
303.80028975403
303.80033080305
303.801043645081
303.813250732113
303.959503873955
301.031122892179
300.932050226818
300.882946070952
300.879937983207
300.87976293184
300.879751774746
300.87975095815
300.879750763552
300.879750615882
300.879750545028
300.879750443311
300.879750364655
300.879750331407
300.879750308138
300.879750282556
300.87975023752
300.879750216598
300.87975018436
300.879750157764
300.879750130933
300.879749336108
300.879749135708
300.879749058364
300.879749238011
300.879750103267
300.879749243886
300.879749247486
300.879749266642
300.879748523117
300.879748719933
300.879749401862
300.879749527251
300.879749522607
300.879750195932
300.879750346035
300.879750393851
300.879750440206
300.8797504794
300.87975052447
300.879750572953
300.879750638527
300.879750708248
300.879750800266
300.879751058126
300.879753008961
300.879771256119
300.879984298919
300.883062203214
300.932566688905
301.039569538608
300.227892133424
300.19187296533
300.174222530172
300.171897900057
300.171749318119
300.171739585979
300.171738917361
300.17173884637
300.171738822025
300.171738811255
300.171738795813
300.171738679992
300.171738674956
300.17173878314
300.171738789456
300.171738786197
300.171738786352
300.171738782301
300.171738781583
300.171738777885
300.171738529778
300.171738542228
300.171738633084
300.171738571343
300.171738668882
300.171738552731
300.171738470089
300.171738567189
300.17173849997
300.17173853041
300.171738754306
300.171738649634
300.171738587136
300.171738766602
300.171738891565
300.171738908797
300.171738922791
300.171738933211
300.171738943142
300.171738954487
300.171738968126
300.171738982424
300.171739006522
300.17173912406
300.171740167048
300.171751187557
300.17189423603
300.174074673628
300.191824166314
300.233619919361
300.045679763422
300.035896839878
300.033019035189
300.032336822037
300.032284437237
300.03228069785
300.032280431278
300.032280410358
300.03228040619
300.03228040542
300.032280403098
300.032280363914
300.032280347515
300.032280381404
300.032280405133
300.032280405463
300.032280405301
300.032280380668
300.032280380535
300.032280381027
300.03228034651
300.032280354672
300.032280366129
300.032280355991
300.032280375321
300.032280381226
300.032280373617
300.032280390375
300.032280356664
300.032280367108
300.032280405177
300.032280390323
300.032280395982
300.03228040565
300.032280405674
300.032280427136
300.03228044758
300.032280450508
300.032280452747
300.032280455184
300.032280457886
300.032280460705
300.03228046544
300.032280491618
300.032280743433
300.032283698437
300.032325927925
300.032973147562
300.035857359593
300.047723810756
300.008578686868
300.006307883618
300.005884085883
300.005726260304
300.005712085257
300.005710976429
300.005710893541
300.005710887841
300.005710887091
300.005710887002
300.005710883108
300.0057108774
300.005710875136
300.005710880514
300.005710887752
300.005710888104
300.0057108881
300.005710879451
300.005710880479
300.00571087961
300.005710876914
300.005710876949
300.005710880094
300.005710882654
300.00571088198
300.005710882874
300.0057108824
300.005710880274
300.005710875833
300.005710882621
300.0057108873
300.005710882949
300.005710887535
300.005710888612
300.00571088598
300.005710893006
300.005710899102
300.005710899881
300.005710900385
300.005710900874
300.005710901423
300.005710901977
300.005710902898
300.005710908447
300.005710964489
300.005711659049
300.005721963902
300.0058755042
300.006290237303
300.009137687684
300.001537807932
300.001060657322
300.000999577373
300.000967262022
300.000963952871
300.000963670647
300.000963648469
300.000963646963
300.000963646817
300.000963646806
300.000963645529
300.000963645003
300.000963644485
300.000963645401
300.000963647074
300.000963647198
300.000963647209
300.000963645114
300.000963644645
300.000963644362
300.000963644291
300.000963644985
300.000963646569
300.000963646938
300.000963645886
300.000963646283
300.000963646887
300.000963645945
300.000963645445
300.000963646555
300.000963647021
300.000963646652
300.000963647415
300.000963647503
300.000963646719
300.000963648374
300.000963649774
300.000963649959
300.000963650068
300.00096365017
300.000963650279
300.000963650384
300.000963650563
300.000963651675
300.000963663237
300.00096381098
300.000966040912
300.000998408541
300.001054741494
300.001669331196
300.000266214222
300.000172666348
300.00016365668
300.000157517193
300.000156814622
300.000156749672
300.000156744292
300.000156743914
300.000156743884
300.000156743883
300.000156743591
300.000156743555
300.000156743452
300.000156743611
300.000156743951
300.000156743983
300.000156743989
300.000156743555
300.000156743357
300.000156743473
300.000156743479
300.000156743619
300.000156743972
300.000156744033
300.000156743743
300.00015674384
300.000156744059
300.000156743797
300.000156743777
300.000156743897
300.000156743994
300.000156743939
300.000156744085
300.000156744089
300.000156743914
300.000156744253
300.000156744536
300.000156744575
300.000156744599
300.000156744621
300.000156744642
300.000156744661
300.000156744695
300.000156744907
300.000156747146
300.000156776283
300.000157220037
300.00016353074
300.000170994019
300.000294275184
300.000044853087
300.000027427447
300.000026032645
300.000024923808
300.000024784246
300.000024770339
300.000024769123
300.000024769033
300.000024769027
300.000024769027
300.000024768969
300.000024768969
300.00002476895
300.000024768977
300.000024769041
300.000024769049
300.00002476905
300.000024768968
300.000024768921
300.000024768966
300.000024768963
300.00002476899
300.000024769059
300.00002476905
300.00002476901
300.000024769028
300.000024769056
300.000024769022
300.000024769028
300.000024769044
300.000024769045
300.000024769032
300.000024769076
300.000024769076
300.000024769042
300.000024769105
300.000024769144
300.000024769139
300.000024769158
300.000024769175
300.00002476918
300.000024769183
300.000024769189
300.000024769228
300.00002476964
300.000024775061
300.000024858065
300.000026020474
300.000027007786
300.000050440713
300.000007395727
300.000004275032
300.0000040471
300.000003853997
300.000003827611
300.000003824792
300.000003824532
300.000003824511
300.00000382451
300.00000382451
300.000003824499
300.0000038245
300.0000038245
300.000003824501
300.000003824509
300.000003824514
300.000003824514
300.0000038245
300.00000382449
300.0000038245
300.000003824499
300.000003824504
300.000003824517
300.000003824514
300.00000382451
300.000003824509
300.000003824511
300.000003824506
300.000003824511
300.000003824516
300.000003824514
300.000003824509
300.000003824519
300.000003824519
300.000003824513
300.000003824524
300.000003824529
300.000003824527
300.000003824532
300.000003824536
300.000003824537
300.000003824538
300.000003824539
300.000003824546
300.000003824618
300.000003825582
300.000003840388
300.000004045384
300.000004178703
300.000008452628
300.000001198666
300.000000656929
300.000000617867
300.000000585133
300.00000058033
300.000000579783
300.00000057973
300.000000579725
300.000000579725
300.000000579725
300.000000579724
300.000000579723
300.000000579723
300.000000579723
300.000000579724
300.000000579725
300.000000579725
300.000000579723
300.000000579721
300.000000579722
300.000000579723
300.000000579724
300.000000579725
300.000000579724
300.000000579723
300.000000579723
300.000000579724
300.000000579723
300.000000579724
300.000000579725
300.000000579724
300.000000579723
300.000000579725
300.000000579725
300.000000579724
300.000000579726
300.000000579726
300.000000579726
300.000000579726
300.000000579727
300.000000579728
300.000000579728
300.000000579728
300.000000579729
300.000000579741
300.000000579907
300.000000582451
300.000000617391
300.000000636292
300.000001390782
300.000000192031
300.000000100298
300.000000093222
300.000000087773
300.000000086924
300.000000086821
300.000000086811
300.000000086809
300.000000086809
300.000000086809
300.000000086809
300.000000086809
300.000000086809
300.000000086809
300.000000086809
300.000000086809
300.000000086809
300.000000086808
300.000000086808
300.000000086808
300.000000086808
300.000000086808
300.000000086808
300.000000086808
300.000000086808
300.000000086808
300.000000086808
300.000000086807
300.000000086807
300.000000086808
300.000000086807
300.000000086807
300.000000086807
300.000000086807
300.000000086807
300.000000086807
300.000000086807
300.000000086807
300.000000086807
300.000000086807
300.000000086807
300.000000086807
300.000000086807
300.000000086807
300.000000086809
300.000000086837
300.000000087262
300.000000093069
300.00000009611
300.000000225859
300.000000030984
300.000000015729
300.000000014218
300.000000013309
300.000000013162
300.000000013143
300.000000013141
300.000000013141
300.000000013141
300.000000013141
300.000000013141
300.00000001314
300.00000001314
300.00000001314
300.00000001314
300.00000001314
300.00000001314
300.00000001314
300.00000001314
300.00000001314
300.000000013139
300.000000013139
300.000000013139
300.000000013139
300.000000013139
300.000000013139
300.000000013139
300.000000013139
300.000000013138
300.000000013138
300.000000013138
300.000000013138
300.000000013138
300.000000013138
300.000000013138
300.000000013138
300.000000013138
300.000000013138
300.000000013137
300.000000013137
300.000000013137
300.000000013137
300.000000013137
300.000000013137
300.000000013138
300.000000013142
300.000000013212
300.000000014172
300.000000014911
300.000000036783
300.000000005548
300.000000003011
300.000000002478
300.000000002311
300.000000002285
300.000000002282
300.000000002281
300.000000002281
300.000000002281
300.000000002281
300.000000002281
300.000000002281
300.000000002281
300.000000002281
300.000000002281
300.00000000228
300.00000000228
300.00000000228
300.00000000228
300.00000000228
300.00000000228
300.00000000228
300.000000002279
300.000000002279
300.000000002279
300.000000002279
300.000000002279
300.000000002279
300.000000002279
300.000000002279
300.000000002278
300.000000002278
300.000000002278
300.000000002278
300.000000002278
300.000000002278
300.000000002278
300.000000002278
300.000000002277
300.000000002277
300.000000002277
300.000000002277
300.000000002277
300.000000002277
300.000000002277
300.000000002278
300.00000000229
300.000000002463
300.000000002851
300.000000006515
300.000000001575
300.000000001114
300.000000000753
300.000000000706
300.0000000007
300.0000000007
300.0000000007
300.0000000007
300.0000000007
300.000000000699
300.000000000699
300.000000000699
300.000000000699
300.000000000699
300.000000000699
300.000000000699
300.000000000699
300.000000000698
300.000000000698
300.000000000698
300.000000000698
300.000000000698
300.000000000698
300.000000000697
300.000000000697
300.000000000697
300.000000000697
300.000000000697
300.000000000697
300.000000000697
300.000000000697
300.000000000696
300.000000000696
300.000000000696
300.000000000696
300.000000000696
300.000000000696
300.000000000696
300.000000000696
300.000000000695
300.000000000695
300.000000000695
300.000000000695
300.000000000695
300.000000000695
300.000000000695
300.000000000698
300.000000000746
300.000000001079
300.000000001727
300.000000000961
300.000000000835
300.000000000503
300.000000000474
300.000000000472
300.000000000472
300.000000000472
300.000000000472
300.000000000472
300.000000000472
300.000000000472
300.000000000472
300.000000000471
300.000000000471
300.000000000471
300.000000000471
300.000000000471
300.000000000471
300.000000000471
300.00000000047
300.00000000047
300.00000000047
300.00000000047
300.00000000047
300.00000000047
300.000000000469
300.000000000469
300.000000000469
300.000000000469
300.000000000469
300.000000000469
300.000000000469
300.000000000468
300.000000000468
300.000000000468
300.000000000468
300.000000000468
300.000000000468
300.000000000468
300.000000000468
300.000000000468
300.000000000467
300.000000000467
300.000000000467
300.000000000467
300.000000000467
300.000000000469
300.000000000496
300.000000000821
300.000000000978
300.000000000868
300.000000000794
300.000000000467
300.000000000442
300.00000000044
300.00000000044
300.00000000044
300.00000000044
300.00000000044
300.00000000044
300.00000000044
300.00000000044
300.000000000439
300.000000000439
300.000000000439
300.000000000439
300.000000000439
300.000000000439
300.000000000438
300.000000000438
300.000000000438
300.000000000438
300.000000000438
300.000000000438
300.000000000437
300.000000000437
300.000000000437
300.000000000437
300.000000000437
300.000000000437
300.000000000437
300.000000000436
300.000000000436
300.000000000436
300.000000000436
300.000000000436
300.000000000436
300.000000000436
300.000000000435
300.000000000435
300.000000000435
300.000000000435
300.000000000435
300.000000000435
300.000000000435
300.000000000435
300.000000000436
300.000000000461
300.000000000784
300.000000000862
300.000000000854
300.000000000789
300.000000000462
300.000000000438
300.000000000436
300.000000000436
300.000000000436
300.000000000436
300.000000000436
300.000000000436
300.000000000435
300.000000000435
300.000000000435
300.000000000435
300.000000000435
300.000000000435
300.000000000435
300.000000000434
300.000000000434
300.000000000434
300.000000000434
300.000000000434
300.000000000434
300.000000000433
300.000000000433
300.000000000433
300.000000000433
300.000000000433
300.000000000433
300.000000000432
300.000000000432
300.000000000432
300.000000000432
300.000000000432
300.000000000432
300.000000000432
300.000000000431
300.000000000431
300.000000000431
300.000000000431
300.000000000431
300.000000000431
300.000000000431
300.000000000431
300.000000000431
300.000000000431
300.000000000432
300.000000000456
300.000000000779
300.000000000845
300.000000000853
300.000000000789
300.000000000462
300.000000000437
300.000000000436
300.000000000436
300.000000000436
300.000000000436
300.000000000435
300.000000000435
300.000000000435
300.000000000435
300.000000000435
300.000000000435
300.000000000435
300.000000000435
300.000000000434
300.000000000434
300.000000000434
300.000000000434
300.000000000434
300.000000000433
300.000000000433
300.000000000433
300.000000000433
300.000000000433
300.000000000433
300.000000000432
300.000000000432
300.000000000432
300.000000000432
300.000000000432
300.000000000432
300.000000000431
300.000000000431
300.000000000431
300.000000000431
300.000000000431
300.000000000431
300.000000000431
300.000000000431
300.000000000431
300.00000000043
300.00000000043
300.00000000043
300.00000000043
300.000000000432
300.000000000456
300.000000000779
300.000000000843
300.000000000854
300.000000000789
300.000000000463
300.000000000438
300.000000000436
300.000000000436
300.000000000436
300.000000000436
300.000000000436
300.000000000436
300.000000000436
300.000000000435
300.000000000435
300.000000000435
300.000000000435
300.000000000435
300.000000000435
300.000000000435
300.000000000434
300.000000000434
300.000000000434
300.000000000434
300.000000000434
300.000000000433
300.000000000433
300.000000000433
300.000000000433
300.000000000433
300.000000000433
300.000000000432
300.000000000432
300.000000000432
300.000000000432
300.000000000432
300.000000000432
300.000000000431
300.000000000431
300.000000000431
300.000000000431
300.000000000431
300.000000000431
300.000000000431
300.000000000431
300.000000000431
300.00000000043
300.00000000043
300.000000000432
300.000000000456
300.000000000779
300.000000000843
300.000000000854
300.00000000079
300.000000000463
300.000000000438
300.000000000437
300.000000000436
300.000000000436
300.000000000436
300.000000000436
300.000000000436
300.000000000436
300.000000000436
300.000000000436
300.000000000435
300.000000000435
300.000000000435
300.000000000435
300.000000000435
300.000000000435
300.000000000434
300.000000000434
300.000000000434
300.000000000434
300.000000000434
300.000000000433
300.000000000433
300.000000000433
300.000000000433
300.000000000433
300.000000000433
300.000000000432
300.000000000432
300.000000000432
300.000000000432
300.000000000432
300.000000000432
300.000000000431
300.000000000431
300.000000000431
300.000000000431
300.000000000431
300.000000000431
300.000000000431
300.000000000431
300.000000000431
300.000000000431
300.000000000432
300.000000000456
300.000000000779
300.000000000843
300.000000000855
300.000000000791
300.000000000463
300.000000000438
300.000000000437
300.000000000437
300.000000000437
300.000000000437
300.000000000436
300.000000000436
300.000000000436
300.000000000436
300.000000000436
300.000000000436
300.000000000436
300.000000000435
300.000000000435
300.000000000435
300.000000000435
300.000000000435
300.000000000434
300.000000000434
300.000000000434
300.000000000434
300.000000000434
300.000000000433
300.000000000433
300.000000000433
300.000000000433
300.000000000433
300.000000000433
300.000000000432
300.000000000432
300.000000000432
300.000000000432
300.000000000432
300.000000000432
300.000000000432
300.000000000431
300.000000000431
300.000000000431
300.000000000431
300.000000000431
300.000000000431
300.000000000431
300.000000000431
300.000000000432
300.000000000456
300.00000000078
300.000000000843
300.000000000855
300.000000000791
300.000000000463
300.000000000438
300.000000000437
300.000000000437
300.000000000437
300.000000000437
300.000000000437
300.000000000437
300.000000000436
300.000000000436
300.000000000436
300.000000000436
300.000000000436
300.000000000436
300.000000000435
300.000000000435
300.000000000435
300.000000000435
300.000000000435
300.000000000434
300.000000000434
300.000000000434
300.000000000434
300.000000000434
300.000000000433
300.000000000433
300.000000000433
300.000000000433
300.000000000433
300.000000000433
300.000000000432
300.000000000432
300.000000000432
300.000000000432
300.000000000432
300.000000000432
300.000000000432
300.000000000431
300.000000000431
300.000000000431
300.000000000431
300.000000000431
300.000000000431
300.000000000431
300.000000000432
300.000000000456
300.00000000078
300.000000000843
300.000000000855
300.000000000791
300.000000000464
300.000000000439
300.000000000437
300.000000000437
300.000000000437
300.000000000437
300.000000000437
300.000000000437
300.000000000437
300.000000000436
300.000000000436
300.000000000436
300.000000000436
300.000000000436
300.000000000436
300.000000000435
300.000000000435
300.000000000435
300.000000000435
300.000000000435
300.000000000434
300.000000000434
300.000000000434
300.000000000434
300.000000000434
300.000000000433
300.000000000433
300.000000000433
300.000000000433
300.000000000433
300.000000000433
300.000000000432
300.000000000432
300.000000000432
300.000000000432
300.000000000432
300.000000000432
300.000000000432
300.000000000431
300.000000000431
300.000000000431
300.000000000431
300.000000000431
300.000000000431
300.000000000432
300.000000000456
300.00000000078
300.000000000843
300.000000000856
300.000000000791
300.000000000464
300.000000000439
300.000000000437
300.000000000437
300.000000000437
300.000000000437
300.000000000437
300.000000000437
300.000000000437
300.000000000436
300.000000000436
300.000000000436
300.000000000436
300.000000000436
300.000000000436
300.000000000435
300.000000000435
300.000000000435
300.000000000435
300.000000000435
300.000000000434
300.000000000434
300.000000000434
300.000000000434
300.000000000434
300.000000000433
300.000000000433
300.000000000433
300.000000000433
300.000000000433
300.000000000433
300.000000000432
300.000000000432
300.000000000432
300.000000000432
300.000000000432
300.000000000432
300.000000000432
300.000000000431
300.000000000431
300.000000000431
300.000000000431
300.000000000431
300.000000000431
300.000000000432
300.000000000456
300.00000000078
300.000000000844
300.000000000856
300.000000000791
300.000000000464
300.000000000439
300.000000000437
300.000000000437
300.000000000437
300.000000000437
300.000000000437
300.000000000437
300.000000000437
300.000000000437
300.000000000436
300.000000000436
300.000000000436
300.000000000436
300.000000000436
300.000000000435
300.000000000435
300.000000000435
300.000000000435
300.000000000435
300.000000000434
300.000000000434
300.000000000434
300.000000000434
300.000000000434
300.000000000433
300.000000000433
300.000000000433
300.000000000433
300.000000000433
300.000000000433
300.000000000432
300.000000000432
300.000000000432
300.000000000432
300.000000000432
300.000000000432
300.000000000432
300.000000000431
300.000000000431
300.000000000431
300.000000000431
300.000000000431
300.000000000431
300.000000000432
300.000000000456
300.00000000078
300.000000000844
300.000000000855
300.000000000791
300.000000000464
300.000000000439
300.000000000437
300.000000000437
300.000000000437
300.000000000437
300.000000000437
300.000000000437
300.000000000437
300.000000000436
300.000000000436
300.000000000436
300.000000000436
300.000000000436
300.000000000436
300.000000000435
300.000000000435
300.000000000435
300.000000000435
300.000000000435
300.000000000434
300.000000000434
300.000000000434
300.000000000434
300.000000000434
300.000000000433
300.000000000433
300.000000000433
300.000000000433
300.000000000433
300.000000000433
300.000000000432
300.000000000432
300.000000000432
300.000000000432
300.000000000432
300.000000000432
300.000000000432
300.000000000431
300.000000000431
300.000000000431
300.000000000431
300.000000000431
300.000000000431
300.000000000432
300.000000000456
300.00000000078
300.000000000844
300.000000000855
300.000000000791
300.000000000464
300.000000000439
300.000000000437
300.000000000437
300.000000000437
300.000000000437
300.000000000437
300.000000000437
300.000000000437
300.000000000436
300.000000000436
300.000000000436
300.000000000436
300.000000000436
300.000000000435
300.000000000435
300.000000000435
300.000000000435
300.000000000435
300.000000000435
300.000000000434
300.000000000434
300.000000000434
300.000000000434
300.000000000434
300.000000000433
300.000000000433
300.000000000433
300.000000000433
300.000000000433
300.000000000433
300.000000000432
300.000000000432
300.000000000432
300.000000000432
300.000000000432
300.000000000432
300.000000000431
300.000000000431
300.000000000431
300.000000000431
300.000000000431
300.000000000431
300.000000000431
300.000000000432
300.000000000456
300.00000000078
300.000000000843
300.000000000855
300.000000000791
300.000000000463
300.000000000438
300.000000000437
300.000000000437
300.000000000437
300.000000000437
300.000000000437
300.000000000436
300.000000000436
300.000000000436
300.000000000436
300.000000000436
300.000000000436
300.000000000436
300.000000000435
300.000000000435
300.000000000435
300.000000000435
300.000000000435
300.000000000434
300.000000000434
300.000000000434
300.000000000434
300.000000000434
300.000000000433
300.000000000433
300.000000000433
300.000000000433
300.000000000433
300.000000000433
300.000000000432
300.000000000432
300.000000000432
300.000000000432
300.000000000432
300.000000000432
300.000000000431
300.000000000431
300.000000000431
300.000000000431
300.000000000431
300.000000000431
300.000000000431
300.000000000431
300.000000000432
300.000000000456
300.00000000078
300.000000000843
300.000000000855
300.000000000791
300.000000000463
300.000000000438
300.000000000437
300.000000000437
300.000000000437
300.000000000436
300.000000000436
300.000000000436
300.000000000436
300.000000000436
300.000000000436
300.000000000436
300.000000000435
300.000000000435
300.000000000435
300.000000000435
300.000000000435
300.000000000435
300.000000000434
300.000000000434
300.000000000434
300.000000000434
300.000000000434
300.000000000433
300.000000000433
300.000000000433
300.000000000433
300.000000000433
300.000000000433
300.000000000432
300.000000000432
300.000000000432
300.000000000432
300.000000000432
300.000000000432
300.000000000431
300.000000000431
300.000000000431
300.000000000431
300.000000000431
300.000000000431
300.000000000431
300.000000000431
300.000000000431
300.000000000432
300.000000000456
300.00000000078
300.000000000843
300.000000000854
300.00000000079
300.000000000463
300.000000000438
300.000000000436
300.000000000436
300.000000000436
300.000000000436
300.000000000436
300.000000000436
300.000000000436
300.000000000436
300.000000000436
300.000000000435
300.000000000435
300.000000000435
300.000000000435
300.000000000435
300.000000000435
300.000000000434
300.000000000434
300.000000000434
300.000000000434
300.000000000434
300.000000000433
300.000000000433
300.000000000433
300.000000000433
300.000000000433
300.000000000432
300.000000000432
300.000000000432
300.000000000432
300.000000000432
300.000000000432
300.000000000432
300.000000000431
300.000000000431
300.000000000431
300.000000000431
300.000000000431
300.000000000431
300.000000000431
300.000000000431
300.000000000431
300.000000000431
300.000000000432
300.000000000456
300.000000000779
300.000000000843
300.000000000853
300.000000000789
300.000000000462
300.000000000438
300.000000000436
300.000000000436
300.000000000436
300.000000000436
300.000000000436
300.000000000436
300.000000000435
300.000000000435
300.000000000435
300.000000000435
300.000000000435
300.000000000435
300.000000000435
300.000000000434
300.000000000434
300.000000000434
300.000000000434
300.000000000434
300.000000000433
300.000000000433
300.000000000433
300.000000000433
300.000000000433
300.000000000433
300.000000000432
300.000000000432
300.000000000432
300.000000000432
300.000000000432
300.000000000432
300.000000000431
300.000000000431
300.000000000431
300.000000000431
300.000000000431
300.000000000431
300.000000000431
300.000000000431
300.00000000043
300.00000000043
300.00000000043
300.00000000043
300.000000000432
300.000000000456
300.000000000779
300.000000000842
300.000000000853
300.000000000789
300.000000000462
300.000000000437
300.000000000436
300.000000000436
300.000000000435
300.000000000435
300.000000000435
300.000000000435
300.000000000435
300.000000000435
300.000000000435
300.000000000435
300.000000000434
300.000000000434
300.000000000434
300.000000000434
300.000000000434
300.000000000434
300.000000000433
300.000000000433
300.000000000433
300.000000000433
300.000000000433
300.000000000433
300.000000000432
300.000000000432
300.000000000432
300.000000000432
300.000000000432
300.000000000432
300.000000000431
300.000000000431
300.000000000431
300.000000000431
300.000000000431
300.000000000431
300.000000000431
300.000000000431
300.00000000043
300.00000000043
300.00000000043
300.00000000043
300.00000000043
300.00000000043
300.000000000431
300.000000000455
300.000000000778
300.000000000842
300.000000000852
300.000000000788
300.000000000462
300.000000000437
300.000000000435
300.000000000435
300.000000000435
300.000000000435
300.000000000435
300.000000000435
300.000000000435
300.000000000434
300.000000000434
300.000000000434
300.000000000434
300.000000000434
300.000000000434
300.000000000434
300.000000000433
300.000000000433
300.000000000433
300.000000000433
300.000000000433
300.000000000433
300.000000000432
300.000000000432
300.000000000432
300.000000000432
300.000000000432
300.000000000431
300.000000000431
300.000000000431
300.000000000431
300.000000000431
300.000000000431
300.000000000431
300.000000000431
300.00000000043
300.00000000043
300.00000000043
300.00000000043
300.00000000043
300.00000000043
300.00000000043
300.00000000043
300.00000000043
300.000000000431
300.000000000455
300.000000000778
300.000000000841
300.000000000851
300.000000000787
300.000000000461
300.000000000436
300.000000000435
300.000000000435
300.000000000434
300.000000000434
300.000000000434
300.000000000434
300.000000000434
300.000000000434
300.000000000434
300.000000000434
300.000000000434
300.000000000433
300.000000000433
300.000000000433
300.000000000433
300.000000000433
300.000000000433
300.000000000432
300.000000000432
300.000000000432
300.000000000432
300.000000000432
300.000000000432
300.000000000431
300.000000000431
300.000000000431
300.000000000431
300.000000000431
300.000000000431
300.000000000431
300.00000000043
300.00000000043
300.00000000043
300.00000000043
300.00000000043
300.00000000043
300.00000000043
300.00000000043
300.00000000043
300.00000000043
300.000000000429
300.000000000429
300.000000000431
300.000000000455
300.000000000777
300.000000000841
300.00000000085
300.000000000786
300.00000000046
300.000000000436
300.000000000434
300.000000000434
300.000000000434
300.000000000434
300.000000000434
300.000000000434
300.000000000433
300.000000000433
300.000000000433
300.000000000433
300.000000000433
300.000000000433
300.000000000433
300.000000000433
300.000000000432
300.000000000432
300.000000000432
300.000000000432
300.000000000432
300.000000000432
300.000000000431
300.000000000431
300.000000000431
300.000000000431
300.000000000431
300.000000000431
300.000000000431
300.00000000043
300.00000000043
300.00000000043
300.00000000043