/*--------------------------------*- C++ -*----------------------------------*\
  =========                 |
  \\      /  F ield         | OpenFOAM: The Open Source CFD Toolbox
   \\    /   O peration     | Website:  https://openfoam.org
    \\  /    A nd           | Version:  10
     \\/     M anipulation  |
\*---------------------------------------------------------------------------*/
FoamFile
{
    format      ascii;
    class       volVectorField;
    location    "0.6";
    object      U;
}
// * * * * * * * * * * * * * * * * * * * * * * * * * * * * * * * * * * * * * //

dimensions      [0 1 -1 0 0 0 0];

internalField   nonuniform List<vector> 
2500
(
(-1.67580149008069e-06 7.99726214840987e-06 1.47545822870961e-26)
(-3.04407901688303e-07 7.54700519420241e-06 2.41374930545254e-23)
(-1.90518909613027e-06 1.01151128926744e-05 1.58065357898446e-26)
(-2.33879671870966e-06 1.01231083970285e-05 0)
(-2.37590658473802e-06 1.01248874484921e-05 -2.02410951562273e-26)
(-2.39199567495283e-06 1.01273567403159e-05 0)
(-2.42179500521233e-06 1.01326167147914e-05 0)
(-2.47303681135e-06 1.01383639175469e-05 0)
(-2.54114008268571e-06 1.0143893467796e-05 1.58069513203809e-26)
(-2.61883730558522e-06 1.01492035069228e-05 1.2326935901494e-23)
(-2.69978569006647e-06 1.01542641192176e-05 3.16131724808801e-26)
(-2.77927657873633e-06 1.01591477401318e-05 2.41530561551031e-23)
(-2.85380825321934e-06 1.01639369213765e-05 2.41530556882944e-23)
(-2.92086486704093e-06 1.01686310735571e-05 3.16131665583682e-26)
(-2.97873996585897e-06 1.01732402550881e-05 1.23269370282632e-23)
(-3.02622567194977e-06 1.0177773846564e-05 3.16131600925427e-26)
(-3.06250340953969e-06 1.01822373479607e-05 1.23427446025735e-23)
(-3.08703293807181e-06 1.018661648268e-05 1.23427437802813e-23)
(-3.09952473816425e-06 1.01909076557342e-05 3.16131544312807e-26)
(-3.09982779790794e-06 1.01950417821786e-05 2.41371921449565e-23)
(-3.08792530271009e-06 1.01991794964506e-05 1.58065346138958e-26)
(-3.06400541880463e-06 1.02031932089956e-05 1.58071469596268e-26)
(-3.02836982156059e-06 1.02070083427801e-05 1.23269390443313e-23)
(-2.98122735176057e-06 1.02107876355589e-05 1.58060092327706e-26)
(-2.92282692925581e-06 1.02143949495448e-05 1.58071292249394e-26)
(-2.85368960833609e-06 1.02178242716518e-05 2.41372559263076e-23)
(-2.77424769865072e-06 1.0221104514697e-05 1.58060352334654e-26)
(-2.68479321485758e-06 1.0224215614743e-05 1.58070932539428e-26)
(-2.58579484494645e-06 1.02271389544392e-05 1.23269402819075e-23)
(-2.47756226603167e-06 1.02299140173636e-05 1.58060780174972e-26)
(-2.3603347867313e-06 1.0232430598035e-05 0)
(-2.23442895678801e-06 1.0234748287283e-05 0)
(-2.10000170577824e-06 1.02368423213775e-05 0)
(-1.95716556780598e-06 1.0238652689573e-05 0)
(-1.80587409870283e-06 1.02402567728358e-05 1.58069578621064e-26)
(-1.64599282784027e-06 1.02415210431055e-05 1.23111343538288e-23)
(-1.47723205368487e-06 1.0242441182412e-05 -2.41214530728521e-23)
(-1.29899635005023e-06 1.02429611425099e-05 -1.58062488636488e-26)
(-1.11030051528145e-06 1.02430270205697e-05 0)
(-9.09588301480435e-07 1.02425443122517e-05 4.43424687172413e-27)
(-6.94463959538511e-07 1.02413964115727e-05 -1.2342748546388e-23)
(-4.61381198267158e-07 1.02394490303181e-05 -1.2342748183451e-23)
(-2.05415480534552e-07 1.0236558505072e-05 -3.16131288611459e-26)
(7.90304211180568e-08 1.02327039828645e-05 -1.23427487418643e-23)
(3.9511081002239e-07 1.02285344581498e-05 -2.41530574301346e-23)
(7.34799072471732e-07 1.02260419967795e-05 4.43451469123916e-27)
(1.06922858941572e-06 1.02212383127241e-05 -1.18261271397034e-23)
(1.05910970220686e-06 1.02008391920037e-05 -1.23269558337561e-23)
(-8.87511110969331e-08 7.61638144721319e-06 -8.4740970426897e-27)
(1.59228991917925e-06 7.88320543974183e-06 -1.1506491755159e-23)
(-3.81047107947173e-06 -2.21623689448554e-05 0)
(1.61668136619137e-06 -3.17549051090981e-05 1.03515845252076e-25)
(-1.25995399760503e-06 -2.76789647297561e-05 0)
(-3.15405444173125e-06 -2.766957328553e-05 -6.58003076189397e-27)
(-3.22711523715282e-06 -2.77550356752259e-05 -1.55081445207441e-23)
(-3.26706814738553e-06 -2.77492375981204e-05 5.91433907603479e-27)
(-3.32753993614477e-06 -2.77259078994418e-05 0)
(-3.41834983022972e-06 -2.77015678502038e-05 0)
(-3.53121633531954e-06 -2.76794428116623e-05 1.2493019793529e-26)
(-3.65560644704752e-06 -2.76601226165125e-05 8.84458736864617e-26)
(-3.78277883711965e-06 -2.76424317100902e-05 -6.24649078050093e-27)
(-3.90624432373848e-06 -2.76258235534081e-05 8.21996433151965e-26)
(-4.02130799220543e-06 -2.76104012105044e-05 9.46926677124923e-26)
(-4.12463843782453e-06 -2.75956698448098e-05 -6.24650974157979e-27)
(-4.21395771780553e-06 -2.75814438206263e-05 9.46926803344033e-26)
(-4.28768099501375e-06 -2.75676422645296e-05 0)
(-4.34476477900917e-06 -2.7554184716017e-05 8.21996641903634e-26)
(-4.38454125877884e-06 -2.7541046194575e-05 8.84461823773786e-26)
(-4.40665970443525e-06 -2.75282153661286e-05 0)
(-4.4109835833335e-06 -2.75156595591205e-05 9.46927088019604e-26)
(-4.39765818134784e-06 -2.75034325006793e-05 0)
(-4.36692823933669e-06 -2.74916357839576e-05 6.24650803006801e-27)
(-4.31913687636652e-06 -2.7480169703083e-05 8.21997086573125e-26)
(-4.2548006399297e-06 -2.74689248856819e-05 0)
(-4.17438157406173e-06 -2.74580821761217e-05 6.24650749217855e-27)
(-4.0785568047993e-06 -2.74478145412545e-05 8.21997242867521e-26)
(-3.96799949805927e-06 -2.74379373267283e-05 1.24930142449882e-26)
(-3.84320898924667e-06 -2.74285753230557e-05 -6.24650693736286e-27)
(-3.70485850385707e-06 -2.74198082758239e-05 8.21997384916947e-26)
(-3.55350531789653e-06 -2.74115130248869e-05 1.24930131377978e-26)
(-3.38953434532534e-06 -2.74039116877539e-05 -6.24650638751353e-27)
(-3.21339302640661e-06 -2.73970009243363e-05 6.24650621073956e-27)
(-3.02545127226256e-06 -2.73908487784255e-05 -1.24930120751075e-26)
(-2.82587294496845e-06 -2.73855644401618e-05 -6.24650587112241e-27)
(-2.61472304520896e-06 -2.73811807867402e-05 6.24650571091819e-27)
(-2.39195831425835e-06 -2.7377933519329e-05 8.2199764863891e-26)
(-2.1572239219318e-06 -2.73759515937252e-05 -8.21997676700337e-26)
(-1.9098377427451e-06 -2.73754770477989e-05 0)
(-1.64858536241468e-06 -2.7376816581136e-05 3.32438343632432e-28)
(-1.37149332386116e-06 -2.73804084906785e-05 1.55266678836178e-23)
(-1.07542651765585e-06 -2.73868489998019e-05 -7.56211159650656e-26)
(-7.55661088258247e-07 -2.73968814266241e-05 -8.21997782102386e-26)
(-4.05477124472151e-07 -2.7411460637773e-05 1.53550745100515e-23)
(-1.67133343389693e-08 -2.74307035654707e-05 -8.21997144426207e-26)
(4.16464329159544e-07 -2.74518170108855e-05 -7.56212226383417e-26)
(8.82306473803285e-07 -2.74589615950264e-05 3.08765364610791e-23)
(1.33229721841515e-06 -2.7378160221432e-05 6.58060933040459e-27)
(2.77930844114442e-08 -2.7396786858037e-05 -7.51936056995937e-26)
(-2.38344126784451e-06 -3.14808849253289e-05 3.32149869596798e-23)
(3.53437334801171e-06 -2.21494125127138e-05 -6.80847356308603e-26)
(-2.78093155228335e-06 -0.000101326562588774 3.43010654952155e-27)
(-8.91416401657678e-07 -0.000121691917162902 1.62728900669564e-23)
(-2.12719492741049e-06 -9.86261114589222e-05 3.46814110077746e-27)
(-2.83938276092754e-06 -9.67758149420427e-05 1.48220043668283e-27)
(-2.72608037211838e-06 -9.68274595357857e-05 6.2830591233448e-24)
(-2.7377828292833e-06 -9.68081715565095e-05 6.33965167686477e-24)
(-2.79362044021971e-06 -9.67676479174451e-05 2.96251774368026e-27)
(-2.88002999836677e-06 -9.67288444188627e-05 2.96261126363053e-27)
(-2.98501330989263e-06 -9.66947806513187e-05 6.33960343011702e-24)
(-3.0987758117623e-06 -9.66647779200665e-05 6.30666121219916e-24)
(-3.21390381679421e-06 -9.66378452902233e-05 -6.30369858482647e-24)
(-3.32489712553494e-06 -9.66131036336902e-05 2.89385200014774e-27)
(-3.42793362558978e-06 -9.6589856492937e-05 6.33805294382382e-24)
(-3.520332701097e-06 -9.65677157193927e-05 -6.29925527130256e-24)
(-3.60023414441303e-06 -9.65463956386972e-05 6.58145416295212e-26)
(-3.66636398804682e-06 -9.65257466844424e-05 2.96249054013371e-27)
(-3.71788400550787e-06 -9.65056488090027e-05 2.89379533480496e-27)
(-3.75428039448059e-06 -9.64860541219602e-05 3.43541317163335e-26)
(-3.77529669123946e-06 -9.64669280682962e-05 4.44388496928313e-27)
(-3.78086554769625e-06 -9.64482797627188e-05 6.33953705788364e-24)
(-3.77111509709758e-06 -9.64301438300094e-05 4.44380581345083e-27)
(-3.74628244600921e-06 -9.64124742333398e-05 6.30518339287657e-24)
(-3.706704559201e-06 -9.63953238628676e-05 2.89371729386709e-27)
(-3.65283410570676e-06 -9.63787220075524e-05 1.48132069814124e-27)
(-3.58516323945347e-06 -9.6362679725704e-05 6.30518405561782e-24)
(-3.50422986603649e-06 -9.63473899966701e-05 5.85635734500706e-27)
(-3.41060447293448e-06 -9.63327449780279e-05 6.33664480283706e-24)
(-3.30482057947271e-06 -9.63188513688906e-05 -6.302222168411e-24)
(-3.18740716910727e-06 -9.63058112748079e-05 2.89386155204653e-27)
(-3.05887376052217e-06 -9.62935982117359e-05 6.33664536312034e-24)
(-2.91963454274303e-06 -9.62823176604212e-05 -6.30074137945824e-24)
(-2.77008233220426e-06 -9.62721130973742e-05 6.30074147683169e-24)
(-2.61054479301011e-06 -9.62630610857461e-05 -6.33812722095168e-24)
(-2.44123265145729e-06 -9.62552554629615e-05 -6.30666684418542e-24)
(-2.26224961599515e-06 -9.62489186174747e-05 6.30370452885763e-24)
(-2.07359312924938e-06 -9.62442334556949e-05 2.89373009403177e-27)
(-1.87504691259013e-06 -9.62414580390082e-05 -1.412474214299e-27)
(-1.66612336320483e-06 -9.62409479570131e-05 -1.48130322861593e-27)
(-1.44590090088766e-06 -9.62431793360175e-05 -6.302223635177e-24)
(-1.21284485577664e-06 -9.62488177895838e-05 6.36226892387584e-24)
(-9.64463674195666e-07 -9.62587562353717e-05 1.55005511179713e-27)
(-6.96914844702796e-07 -9.62742088674285e-05 6.88214570797953e-29)
(-4.04543003708782e-07 -9.62966803310441e-05 6.30518308852366e-24)
(-7.96721095089781e-08 -9.63272283022457e-05 6.88090301187386e-29)
(2.86987114593668e-07 -9.63635548724921e-05 1.54994968069067e-27)
(7.0594664195322e-07 -9.63834960733287e-05 6.36472731081608e-24)
(1.26193750264015e-06 -9.63354059951419e-05 2.96463873268858e-27)
(1.05149453726169e-06 -9.82021408480345e-05 1.73410174978513e-27)
(8.51874642125264e-08 -0.000121165875823019 1.62587053873745e-23)
(2.46066507279356e-06 -0.000100724372740974 1.16207431341559e-28)
(-1.14458238920604e-06 -0.00013014959291956 4.28296497764146e-28)
(-2.14990084621226e-06 -0.000150540384337853 4.0581255370276e-24)
(-2.63810678685679e-06 -0.000111972211455639 4.08748774496636e-28)
(-2.67690655627727e-06 -0.000109016603808906 0)
(-2.51629268853928e-06 -0.000108983538934884 5.23133879346173e-27)
(-2.5060004354825e-06 -0.000108927733635323 1.11286077057052e-26)
(-2.55698917361527e-06 -0.000108865805162432 0)
(-2.64027668722035e-06 -0.000108811423507033 0)
(-2.74081411898655e-06 -0.000108764792437421 1.11285452394198e-26)
(-2.84878657830315e-06 -0.000108724173635867 7.27459852983851e-25)
(-2.95733839735285e-06 -0.000108687798621676 -5.23278089063987e-27)
(-3.06157283925296e-06 -0.000108654420306368 7.29926465841079e-25)
(-3.15808866893358e-06 -0.00010862319781402 7.41055022376544e-25)
(-3.2445111538217e-06 -0.00010859353761541 -4.90130133222429e-27)
(-3.31919982108138e-06 -0.000108565068308503 7.40723648328308e-25)
(-3.38102283959457e-06 -0.000108537553387125 6.62973434441321e-28)
(-3.42924910904181e-06 -0.000108510837386021 7.29926680337754e-25)
(-3.46342867532663e-06 -0.000108484847100441 7.35490968857758e-25)
(-3.48334275198874e-06 -0.000108459529754724 6.62973351124189e-28)
(-3.48894522322413e-06 -0.000108434888276961 7.40723822109703e-25)
(-3.48035421204058e-06 -0.00010841092655764 3.31478687301998e-28)
(-3.4577995228865e-06 -0.000108387652896732 5.89577256652948e-27)
(-3.42161206104977e-06 -0.000108365107283661 7.2959534661452e-25)
(-3.37220587583881e-06 -0.000108343350074923 3.3147876976221e-28)
(-3.31004702654507e-06 -0.000108322404219311 5.89577362797309e-27)
(-3.23563910888798e-06 -0.00010830236119458 7.2959541976209e-25)
(-3.14949876377988e-06 -0.000108283263406595 1.14600393386909e-26)
(-3.05214167790235e-06 -0.00010826517612782 -5.23278664275636e-27)
(-2.94406214999705e-06 -0.000108248193607759 7.29595485312325e-25)
(-2.82572852431656e-06 -0.000108232396979964 1.14600422545561e-26)
(-2.69754952906087e-06 -0.000108217872991598 -5.56428161943998e-27)
(-2.55989304524179e-06 -0.00010820478050465 5.56428196402367e-27)
(-2.41305962629515e-06 -0.000108193233417095 -1.11285645839138e-26)
(-2.25727815925716e-06 -0.000108183398338227 -5.56428260312994e-27)
(-2.0926765797927e-06 -0.000108175494439502 5.89577487436758e-27)
(-1.91927745627911e-06 -0.000108169806094013 7.29264113839151e-25)
(-1.73692618958337e-06 -0.000108166673322076 -7.29264136353169e-25)
(-1.54523670964144e-06 -0.000108166569133891 -3.31482115303003e-28)
(-1.34345414293343e-06 -0.000108170114414204 -5.564283834964e-27)
(-1.13028491174562e-06 -0.000108178194649961 1.09637013930642e-26)
(-9.03595847791617e-07 -0.000108191993300842 -8.03086253119937e-27)
(-6.60026286680688e-07 -0.000108213166944572 -7.29927181707761e-25)
(-3.94452852013482e-07 -0.00010824391796041 5.06792949319598e-27)
(-9.93096052814689e-08 -0.000108286575877209 -7.29928413442543e-25)
(2.3704633492547e-07 -0.000108341858955519 -7.29942335302036e-25)
(6.38267666234896e-07 -0.000108397629179045 1.0964267379655e-26)
(1.1943940196482e-06 -0.000108440299044217 -7.2303848281146e-25)
(1.62726655361763e-06 -0.000111435510404624 -7.39880852097385e-25)
(1.43451891573007e-06 -0.000149815692758503 7.17958527401246e-27)
(9.11806323970682e-07 -0.000129241289084299 -3.76659292456012e-24)
(-6.52829082741099e-07 -0.000136872434496184 0)
(-2.12744743831641e-06 -0.00015657104445134 2.07125494909438e-27)
(-2.50652361213033e-06 -0.000114902691102324 0)
(-2.54473388798727e-06 -0.000111672805650062 -8.25702867016101e-29)
(-2.43599503421754e-06 -0.000111529258554658 -3.5702470010612e-25)
(-2.4353953599333e-06 -0.000111429694546093 8.27977026221567e-29)
(-2.49358504113308e-06 -0.000111344681519915 0)
(-2.5826000929081e-06 -0.000111274766762032 0)
(-2.68725720828566e-06 -0.000111216038535072 1.65281356791412e-28)
(-2.79798654035526e-06 -0.000111165167317843 1.65281344096672e-28)
(-2.90830434331168e-06 -0.000111119724265836 -1.65281332801306e-28)
(-3.01365306923686e-06 -0.000111078054644437 1.31290679074839e-27)
(-3.11087336609583e-06 -0.000111039079519173 1.47818821528483e-27)
(-3.1977586081765e-06 -0.000111002073512131 -1.65281301440927e-28)
(-3.27278921632996e-06 -0.000110966566121563 1.47818840282665e-27)
(-3.33491328192891e-06 -0.000110932262122301 0)
(-3.38345678715942e-06 -0.000110898981460976 1.31290734376324e-27)
(-3.41800828383206e-06 -0.000110866617123987 1.47818872690715e-27)
(-3.43837686603839e-06 -0.000110835110805224 0)
(-3.44453512677331e-06 -0.000110804455902808 1.39554833810184e-27)
(-3.43660998007588e-06 -0.000110774654819377 0)
(-3.41484271112436e-06 -0.000110745737188303 1.65281207796767e-28)
(-3.37957294016711e-06 -0.000110717742292106 1.31290809870619e-27)
(-3.33121301490882e-06 -0.000110690725947622 0)
(-3.2702346401834e-06 -0.000110664749122293 8.26405848108225e-29)
(-3.19714563822407e-06 -0.000110639884709716 1.3129084622615e-27)
(-3.11246165726278e-06 -0.000110616207383277 8.26405723410673e-29)
(-3.01670201792606e-06 -0.000110593805477293 -8.26405662531111e-29)
(-2.91036491556367e-06 -0.000110572778727551 1.3129088013946e-27)
(-2.79391960647912e-06 -0.000110553238450891 8.26405544591197e-29)
(-2.66778909817794e-06 -0.00011053530156486 -8.26405487965582e-29)
(-2.53235325003634e-06 -0.000110519132616934 8.26405433316042e-29)
(-2.38792342513236e-06 -0.0001105048954359 -8.2640538069824e-29)
(-2.2347513939065e-06 -0.0001104928059943 -8.26405330540128e-29)
(-2.07299827564553e-06 -0.00011048312447264 8.26405282974386e-29)
(-1.90273058473307e-06 -0.000110476190774897 1.31290945116072e-27)
(-1.72385354828406e-06 -0.000110472426125298 -1.31290952256818e-27)
(-1.53607089616333e-06 -0.000110472410378811 0)
(-1.33875585036281e-06 -0.000110476906565572 -4.1395497114082e-29)
(-1.13079691385664e-06 -0.000110486971933947 3.56087048111232e-25)
(-9.1031360181929e-07 -0.000110504079194158 -1.27166561343179e-27)
(-6.7429639061604e-07 -0.000110530294460266 -1.27166487655455e-27)
(-4.1804047931311e-07 -0.000110568544157576 3.56086914118705e-25)
(-1.34346077354909e-07 -0.000110622595152935 -1.2716650949188e-27)
(1.88253891737457e-07 -0.000110696852253489 -1.27167480927164e-27)
(5.71706485823981e-07 -0.000110791181304036 3.56153094272998e-25)
(1.06596961671475e-06 -0.000110939039365982 4.12839339776017e-29)
(1.49293244141951e-06 -0.000114211486878745 5.06862732285974e-29)
(1.44879417545509e-06 -0.000155600298531728 1.00854452101778e-24)
(4.59595079562421e-07 -0.000135880907068223 -1.54527319311302e-27)
(-4.99538224883943e-07 -0.000138240206219005 5.35328894809385e-29)
(-1.83522830047458e-06 -0.000157638323542188 2.53082422157538e-25)
(-2.20236565781449e-06 -0.000115893574281597 5.05619630164913e-29)
(-2.36747932668038e-06 -0.000112580481010247 0)
(-2.34311085447862e-06 -0.000112366767699794 1.76266758925172e-25)
(-2.37211533610633e-06 -0.000112231100485948 1.77485332038237e-25)
(-2.44477388741927e-06 -0.00011212559202531 4.11795298205101e-29)
(-2.54269121374901e-06 -0.000112041812757429 4.11808211024324e-29)
(-2.65333152685607e-06 -0.000111972269754235 1.77522985721091e-25)
(-2.76821059767461e-06 -0.000111912193439816 1.77646628029677e-25)
(-2.88145668881435e-06 -0.000111858507367232 -1.77440626724415e-25)
(-2.98892225583124e-06 -0.000111809233022142 1.64828719989916e-28)
(-3.08772362402402e-06 -0.000111763083999567 1.7760546465543e-25)
(-3.17582960128967e-06 -0.000111719232441208 -1.77399464013438e-25)
(-3.25184102664682e-06 -0.000111677130560129 1.77605479782008e-25)
(-3.31479201014157e-06 -0.000111636441425914 4.11793518489994e-29)
(-3.36406336332504e-06 -0.000111596959561253 1.23594735540643e-28)
(-3.3992784803261e-06 -0.000111558563918019 1.77564265284701e-25)
(-3.42027782984499e-06 -0.000111521189724416 6.17698918272736e-29)
(-3.4270526018776e-06 -0.000111484820263521 8.88233455539059e-26)
(-3.41974406903167e-06 -0.000111449471210389 6.17708444944238e-29)
(-3.39860406681788e-06 -0.000111415174206235 8.92213002877183e-26)
(-3.36397876189685e-06 -0.000111381979499119 2.06006323231317e-28)
(-3.3162942949741e-06 -0.000111349943004823 2.05905936311887e-29)
(-3.25602586363337e-06 -0.000111319145612447 8.87409462181728e-26)
(-3.18368398765792e-06 -0.000111289667671537 1.23593733680872e-28)
(-3.09979303746094e-06 -0.000111261598967566 8.87203606647712e-26)
(-3.00488116736746e-06 -0.000111235045271562 -8.87203639054618e-26)
(-2.89945452938925e-06 -0.000111210121659521 8.24143305376084e-29)
(-2.78399077105879e-06 -0.000111186956983363 8.87203673922385e-26)
(-2.65892663631596e-06 -0.000111165707815962 -8.86997796792765e-26)
(-2.52465581803239e-06 -0.000111146541113747 8.86997815681193e-26)
(-2.38150798282477e-06 -0.000111129665675898 -8.87409642860705e-26)
(-2.22976467297731e-06 -0.000111115327046151 -8.87409645142214e-26)
(-2.06962221590518e-06 -0.000111103836537145 8.87203769432779e-26)
(-1.90119187121057e-06 -0.000111095575758715 1.03003237644144e-28)
(-1.72445010223791e-06 -0.000111091041716356 -8.24134268905788e-29)
(-1.53919661067332e-06 -0.000111090887678751 -2.05903821647549e-29)
(-1.34493559868242e-06 -0.000111095990520748 -4.59771986127384e-28)
(-1.14075657134436e-06 -0.000111107556598032 8.88848029411379e-26)
(-9.25071709317766e-07 -0.000111127276631404 -2.06167949828942e-29)
(-6.95286260456389e-07 -0.000111157559230864 -6.18231221050438e-29)
(-4.47323201082027e-07 -0.000111201929008636 8.89053591114277e-26)
(-1.75019664702255e-07 -0.000111265443906106 -6.18232745003113e-29)
(1.30684368589431e-07 -0.000111355564592542 -2.06178086366604e-29)
(4.82805792773049e-07 -0.000111480198476288 8.89218813339004e-26)
(8.91433602570539e-07 -0.000111692398113215 -2.06156313574153e-29)
(1.18148875839231e-06 -0.000115051335486899 -1.72350080430055e-29)
(1.15827551341436e-06 -0.00015642466206541 2.52592085784156e-25)
(3.162834542223e-07 -0.000137109538422345 -2.31959537919134e-29)
(-4.144114895854e-07 -0.000138570189331878 0)
(-1.52846147669084e-06 -0.000157928819886576 2.5191515897136e-25)
(-1.90539546181356e-06 -0.000116345620792814 0)
(-2.1772006390883e-06 -0.000113050234256933 0)
(-2.23443767837042e-06 -0.000112808327253115 -1.64680444746471e-28)
(-2.30036617023668e-06 -0.000112649224995341 1.6452829129205e-28)
(-2.39144650377722e-06 -0.000112527654965877 0)
(-2.49994764503835e-06 -0.000112432062349703 0)
(-2.61725400103239e-06 -0.000112352926092163 2.05686173955336e-28)
(-2.73654368578116e-06 -0.000112284480132102 8.92137385842852e-26)
(-2.85280422993877e-06 -0.000112223155181429 -8.22105497935747e-29)
(-2.96239296366513e-06 -0.000112166735249235 8.90903753095279e-26)
(-3.06273855838913e-06 -0.000112113784012842 8.92549041146843e-26)
(-3.152013600467e-06 -0.000112063387920457 -8.22106138505548e-29)
(-3.22895082748728e-06 -0.000112014951831967 8.92137527241445e-26)
(-3.29267540398316e-06 -0.000111968110881118 6.1737066211065e-29)
(-3.34262701101788e-06 -0.000111922634645187 8.85895191718077e-26)
(-3.37846920310037e-06 -0.000111878397670404 8.87540486796741e-26)
(-3.40006717462391e-06 -0.000111835336215597 4.11583364841185e-29)
(-3.40743732134076e-06 -0.000111793425389049 8.86512122790328e-26)
(-3.40073396640342e-06 -0.000111752694165496 2.0578688505109e-29)
(-3.38021864827695e-06 -0.000111713169193762 2.05686756748313e-28)
(-3.34624585870854e-06 -0.000111674914320947 9.60584196671078e-28)
(-3.29924582926134e-06 -0.000111638000601031 4.11573868092799e-29)
(-3.239704927364e-06 -0.000111602510129121 1.02843394888225e-28)
(-3.16813778334791e-06 -0.000111568539810381 4.4524628428766e-26)
(-3.08507510012944e-06 -0.000111536191990119 1.02842500746575e-28)
(-2.9910511974613e-06 -0.000111505591364477 -6.16841955657134e-29)
(-2.8865782473597e-06 -0.000111476865611953 4.45246317809605e-26)
(-2.77214875304503e-06 -0.000111450167678989 1.02842564652767e-28)
(-2.64820744085578e-06 -0.000111425667722353 -8.22638220837106e-29)
(-2.51516318313123e-06 -0.000111403562554825 8.22638304517257e-29)
(-2.37336980084557e-06 -0.000111384086263193 -8.22638384370172e-29)
(-2.22313377970428e-06 -0.000111367523740514 -8.22638460265741e-29)
(-2.06468823608934e-06 -0.000111354215617941 1.02843339819492e-28)
(-1.89819693385148e-06 -0.000111344586915491 4.45040581387693e-26)
(-1.72370606983289e-06 -0.000111339192765237 -4.45040593303204e-26)
(-1.54111533739549e-06 -0.000111338747085191 -2.05788940325303e-29)
(-1.35008167032276e-06 -0.000111344215198763 -8.22638764105298e-29)
(-1.14990933950755e-06 -0.000111356915837022 1.54309689552156e-28)
(-9.39330929149189e-07 -0.000111378703524052 -4.43050736916763e-26)
(-7.16249610530324e-07 -0.000111412224335343 -4.45349316002929e-26)
(-4.77416582058275e-07 -0.000111461448556302 1.2344085857237e-28)
(-2.18168685476561e-07 -0.000111532266735677 -4.45350071064067e-26)
(6.71324098969729e-08 -0.000111633889136936 -4.4306010328257e-26)
(3.81679997292402e-07 -0.000111777225065225 1.02862449306669e-28)
(7.08354286492541e-07 -0.000112014904187359 -4.43673245770932e-26)
(8.8056512105956e-07 -0.000115360269649701 -4.54500610170405e-26)
(8.42870219799453e-07 -0.000156485971590335 1.46590440678493e-28)
(2.32423886325472e-07 -0.000137261353593666 -5.90129348836956e-26)
(-3.48525233798058e-07 -0.000138740716261954 0)
(-1.27722013847271e-06 -0.000158152002508532 2.3002930172184e-28)
(-1.65857449728162e-06 -0.000116698105101261 0)
(-1.99647245055994e-06 -0.000113455158885347 -4.11964835202885e-29)
(-2.11980670855754e-06 -0.00011321299350195 -8.88434722737126e-26)
(-2.2222407501256e-06 -0.000113042756105219 1.23470968080512e-28)
(-2.33320629535082e-06 -0.000112910374580191 0)
(-2.45330262528529e-06 -0.000112805510726771 0)
(-2.57782791904503e-06 -0.000112718224536746 0)
(-2.70182573615498e-06 -0.000112642329948014 3.29183062018269e-28)
(-2.82126484122954e-06 -0.000112574029814579 -1.64617882158242e-28)
(-2.9330743235212e-06 -0.000112510944626479 1.64565201898044e-28)
(-3.03502581199277e-06 -0.000112451573732529 2.46874146511917e-28)
(-3.12551197842823e-06 -0.000112394941865234 -1.64617830504466e-28)
(-3.20341027113472e-06 -0.000112340440443571 2.46874171646818e-28)
(-3.26793890809687e-06 -0.000112287679218567 0)
(-3.31860022144179e-06 -0.000112236422064069 8.22826556346397e-29)
(-3.35510245672408e-06 -0.00011218653901108 1.64591544053397e-28)
(-3.37733764724633e-06 -0.000112137967397667 0)
(-3.38534452092274e-06 -0.000112090693554541 1.64591547339001e-28)
(-3.37929118409045e-06 -0.000112044737152194 0)
(-3.35944789953027e-06 -0.00011200014208492 8.23088353998174e-29)
(-3.32618395434711e-06 -0.000111956977910288 1.64565453557524e-28)
(-3.27993546817414e-06 -0.000111915327085125 0)
(-3.22119139534906e-06 -0.000111875281279051 8.23088043317258e-29)
(-3.15047317931502e-06 -0.00011183694707117 8.2282761304919e-29)
(-3.06831987185749e-06 -0.000111800444758742 8.23087841390923e-29)
(-2.97527308655834e-06 -0.000111765906302835 -8.23087743047102e-29)
(-2.8718539201235e-06 -0.000111733482346153 8.22827936973385e-29)
(-2.75856210120944e-06 -0.000111703339607592 8.23087553038293e-29)
(-2.63585719883016e-06 -0.000111675668570934 -8.2308746201838e-29)
(-2.50416583180995e-06 -0.000111650690782643 8.23087374198545e-29)
(-2.36386275684998e-06 -0.000111628667561541 -4.11543644873567e-29)
(-2.21528391912573e-06 -0.00011160990221182 -4.11543604591716e-29)
(-2.0586969956812e-06 -0.000111594774913404 4.11543566376324e-29)
(-1.89432192438647e-06 -0.000111583743355178 8.22828563533137e-29)
(-1.72228124120869e-06 -0.000111577400252918 -8.228286331332e-29)
(-1.54258162295191e-06 -0.000111576514966884 0)
(-1.35503189633159e-06 -0.000111582106091165 -2.05786901731058e-29)
(-1.15916887337669e-06 -0.00011159556146982 4.45361081041339e-26)
(-9.54072438252019e-07 -0.000111618832223105 -2.05662322153533e-29)
(-7.38190705655739e-07 -0.00011165469715076 -6.17073002100928e-29)
(-5.09184270531655e-07 -0.000111707301114654 5.21423011412338e-28)
(-2.64054709019999e-07 -0.000111782947687506 -6.17075969338713e-29)
(-6.11081063910655e-10 -0.000111891144969255 -3.08544402557925e-29)
(2.76610029716024e-07 -0.000112041864421058 4.43041947043456e-26)
(5.36134033658041e-07 -0.0001122786809307 -3.08626782383905e-29)
(6.32801923651366e-07 -0.000115573391541174 -2.98238628325725e-29)
(5.8360535980416e-07 -0.000156493575815021 6.33092583115757e-26)
(1.65822506901453e-07 -0.000137245837703703 -3.65788583202152e-29)
(-2.95745322245147e-07 -0.000138915941975024 5.35322903240515e-29)
(-1.08548387473499e-06 -0.000158403947562037 1.2720922867627e-25)
(-1.46281824420342e-06 -0.000117016902660208 5.04992089340471e-29)
(-1.8343945961142e-06 -0.000113831809530039 4.11942030769033e-29)
(-2.00648115619627e-06 -0.000113604815697446 8.90290443314832e-26)
(-2.14104260126837e-06 -0.000113433014196942 8.91771615287476e-26)
(-2.27130200925821e-06 -0.000113294783764945 4.11475289846763e-29)
(-2.40315098537573e-06 -0.000113183289806828 0)
(-2.53509704736413e-06 -0.000113089402088493 8.82145732426099e-26)
(-2.66395523989444e-06 -0.000113007061748975 8.90927961819201e-26)
(-2.78668059945409e-06 -0.000112932480762769 -8.90927991571446e-26)
(-2.90078632606621e-06 -0.00011286325317704 -2.05730235252036e-29)
(-3.00440458903115e-06 -0.0001127978676994 8.85302428138178e-26)
(-3.0961552545047e-06 -0.000112735340746948 -8.90928070023924e-26)
(-3.17506443078597e-06 -0.000112675061074678 8.85302501509808e-26)
(-3.24044395106527e-06 -0.000112616634720523 2.05736961146589e-29)
(-3.29186419699328e-06 -0.000112559832026554 2.05745865630901e-29)
(-3.32907594143281e-06 -0.000112504520010494 8.85714062973808e-26)
(-3.35200294689979e-06 -0.000112450642539067 4.11482675687252e-29)
(-3.36070315626465e-06 -0.000112398196433917 4.45669862514339e-26)
(-3.35536002670073e-06 -0.000112347201916833 4.11482645590566e-29)
(-3.33626037314076e-06 -0.000112297715897072 4.45669889722671e-26)
(-3.30377827425811e-06 -0.000112249814679897 2.05736613067506e-29)
(-3.25835530739907e-06 -0.000112203590073124 2.05745956537264e-29)
(-3.20049017952259e-06 -0.000112159142879883 4.45669927311539e-26)
(-3.13071210167833e-06 -0.000112116592858283 4.11482583134809e-29)
(-3.049564735628e-06 -0.00011207607462794 4.45464204143861e-26)
(-2.95759784220311e-06 -0.000112037731136467 -4.45464223370686e-26)
(-2.85534124514355e-06 -0.000112001730064565 8.37888238681078e-34)
(-2.74330764894553e-06 -0.000111968254397881 4.45464234232411e-26)
(-2.62196949907422e-06 -0.000111937511688781 -4.45258505751766e-26)
(-2.49177139663066e-06 -0.000111909740417791 4.44949888836653e-26)
(-2.35310838587573e-06 -0.000111885230387444 -4.43165834683036e-26)
(-2.20634675913026e-06 -0.000111864305647774 -4.43268703663809e-26)
(-2.05179723136557e-06 -0.000111847366582333 4.43165844541829e-26)
(-1.88973029430765e-06 -0.000111834906237101 1.02869115303219e-29)
(-1.7203484937909e-06 -0.000111827543047252 0)
(-1.54376503688344e-06 -0.000111826070190503 -1.02871942621493e-29)
(-1.35994677180941e-06 -0.000111831540612739 -3.12142717661003e-28)
(-1.16866508387475e-06 -0.000111845373354907 4.4357726750819e-26)
(-9.69349696880188e-07 -0.000111869531116194 1.02869628902862e-29)
(-7.61008381439008e-07 -0.000111906824938439 1.02871506810309e-29)
(-5.4219193048826e-07 -0.000111961363297859 2.24069481753989e-26)
(-3.11472673313344e-07 -0.000112039275366952 1.02870049476663e-29)
(-6.95156163125079e-08 -0.000112149354374214 1.02865773779556e-29)
(1.74197668469623e-07 -0.00011229855919112 4.43350883533595e-26)
(3.83016185361103e-07 -0.00011251941616367 1.02969795947269e-29)
(4.38329725916246e-07 -0.000115755275565075 1.26182754770346e-29)
(3.8633570816768e-07 -0.00015654136803097 6.33658410326147e-26)
(1.11877009188221e-07 -0.000137238761382774 1.33833911894227e-29)
(-2.54135121311247e-07 -0.000139117013856962 0)
(-9.40448353161434e-07 -0.000158682481382478 2.52133359933571e-25)
(-1.30820644820479e-06 -0.000117313011752787 0)