/*--------------------------------*- C++ -*----------------------------------*\
  =========                 |
  \\      /  F ield         | OpenFOAM: The Open Source CFD Toolbox
   \\    /   O peration     | Website:  https://openfoam.org
    \\  /    A nd           | Version:  10
     \\/     M anipulation  |
\*---------------------------------------------------------------------------*/
FoamFile
{
    format      ascii;
    class       volScalarField;
    location    "0.6";
    object      wallHeatFlux;
}
// * * * * * * * * * * * * * * * * * * * * * * * * * * * * * * * * * * * * * //

dimensions      [1 0 -3 0 0 0 0];

internalField   uniform 0;

boundaryField
{
    back
    {
        type            calculated;
        value           uniform 0;
    }
    bottom
    {
        type            calculated;
        value           nonuniform List<scalar> 
50
(
1183.02278169107
1221.23146487857
1224.34082725391
1224.5008270398
1224.507082713
1224.50658128283
1224.5061275136
1224.50551829965
1224.50483991346
1224.504545897
1224.50401899128
1224.50368098848
1224.50347595851
1224.50319179067
1224.50293749563
1224.50263537886
1224.50250064394
1224.50232268387
1224.50210161105
1224.50194709649
1224.5018401999
1224.50200805972
1224.50217393623
1224.50183606041
1224.50147387865
1224.50166592692
1224.50165102837
1224.50159316922
1224.50180553421
1224.50156472462
1224.5015278203
1224.50154652755
1224.50156825687
1224.50161099097
1224.50147702449
1224.50155646497
1224.50165330622
1224.50172527281
1224.50192369651
1224.50209691905
1224.50229516109
1224.50253437847
1224.50281857628
1224.5030286925
1224.50351078762
1224.50314762907
1224.49330571579
1224.30921708652
1221.1264119934
1182.97713917625
)
;
    }
    left
    {
        type            calculated;
        value           uniform 0;
    }
    front
    {
        type            calculated;
        value           uniform 0;
    }
    right
    {
        type            calculated;
        value           uniform 0;
    }
    top
    {
        type            calculated;
        value           uniform 0;
    }
}


// ************************************************************************* //
