/*--------------------------------*- C++ -*----------------------------------*\
  =========                 |
  \\      /  F ield         | OpenFOAM: The Open Source CFD Toolbox
   \\    /   O peration     | Website:  https://openfoam.org
    \\  /    A nd           | Version:  10
     \\/     M anipulation  |
\*---------------------------------------------------------------------------*/
FoamFile
{
    format      ascii;
    class       volScalarField;
    location    "8.4";
    object      alphat;
}
// * * * * * * * * * * * * * * * * * * * * * * * * * * * * * * * * * * * * * //

dimensions      [1 -1 -1 0 0 0 0];

internalField   nonuniform List<scalar> 
2500
(
5.82595566644471e-15
1.14736865358522e-13
4.92059852821356e-13
8.58908881512514e-13
1.18326446037993e-12
1.45356646063293e-12
1.66642626281971e-12
1.82498302912807e-12
1.93682082705166e-12
2.01161101780033e-12
2.05909591314968e-12
2.08776206819592e-12
2.10424237314668e-12
2.11327962106362e-12
2.11801411658115e-12
2.1203874104557e-12
2.12152738876434e-12
2.12205276143282e-12
2.12228526540881e-12
2.12238407654752e-12
2.12242433953003e-12
2.12243998484924e-12
2.12244569725101e-12
2.1224475662855e-12
2.12244798016939e-12
2.12244769861813e-12
2.12244660681149e-12
2.1224436708204e-12
2.12243595502959e-12
2.12241628672676e-12
2.12236789934904e-12
2.12225309390927e-12
2.12199042323251e-12
2.12141113085683e-12
2.12018078102779e-12
2.11766716248037e-12
2.11273430917212e-12
2.10344968974634e-12
2.08671560961455e-12
2.05788234825755e-12
2.01046735348454e-12
1.93617416500805e-12
1.82543596896205e-12
1.6686501414666e-12
1.45808388602539e-12
1.1901372466216e-12
8.67369733800454e-13
5.00051418676974e-13
1.17912965691552e-13
6.07914102533487e-15
5.78836321067891e-13
2.99010300088419e-11
1.30897806783831e-10
2.28631542356036e-10
3.15136876761698e-10
3.87360583021972e-10
4.44370551003099e-10
4.8695675913747e-10
5.17092682468934e-10
5.37319085553852e-10
5.50212095828936e-10
5.5802873915146e-10
5.62542889317065e-10
5.65030007959779e-10
5.66339362195578e-10
5.66999017746845e-10
5.67317507109401e-10
5.67465054159483e-10
5.67530700249698e-10
5.67558753658842e-10
5.67570252225546e-10
5.67574750552576e-10
5.67576407502475e-10
5.67576957558214e-10
5.67577084424278e-10
5.67577006999218e-10
5.67576692775967e-10
5.67575846143161e-10
5.67573631042308e-10
5.67568013763492e-10
5.67554264370199e-10
5.67521802957992e-10
5.67447890470159e-10
5.67285661910356e-10
5.66942729284222e-10
5.66245388645631e-10
5.64883191728737e-10
5.62330819493208e-10
5.5775072155409e-10
5.49892390101901e-10
5.37021654826414e-10
5.1693101440199e-10
4.87089215827435e-10
4.44971706875399e-10
3.88564099498438e-10
3.16954379157371e-10
2.30857548367392e-10
1.32991483295361e-10
3.07129961197752e-11
6.03085212561352e-13
2.05917666733346e-12
5.38835819521768e-10
1.85540595547782e-07
3.23625643946405e-07
4.45164991792025e-07
5.46334291339294e-07
6.26053862958111e-07
6.85569363055129e-07
7.27704481203373e-07
7.56022425054277e-07
7.74110539505087e-07
7.85105667010604e-07
7.91474864758245e-07
7.94995949035229e-07
7.96856394865129e-07
7.97797291436842e-07
7.9825338575709e-07
7.98465558437482e-07
7.98560364185308e-07
7.98601062545009e-07
7.98617826382473e-07
7.98624422380841e-07
7.98626870641219e-07
7.98627693647695e-07
7.98627890371726e-07
7.98627782579471e-07
7.98627325388231e-07
7.98626090319055e-07
7.98622868563792e-07
7.98614727631025e-07
7.98594869134863e-07
7.98548137236593e-07
7.98442068161946e-07
7.98209985183487e-07
7.97720901713028e-07
7.96729396703619e-07
7.94798360671767e-07
7.91190622504248e-07
7.84734535616342e-07
7.7368548935207e-07
7.55628787996825e-07
7.27492471758195e-07
6.85747664441091e-07
6.26852023454955e-07
5.4792792914045e-07
4.47568687446306e-07
3.26565465915018e-07
1.88295679634268e-07
5.52211112342939e-10
2.13274454721652e-12
3.65433730323387e-12
9.62999167777061e-10
3.32930594158817e-07
5.78935585372484e-07
7.94296910538492e-07
9.72811746902581e-07
1.11303107125962e-06
1.21747833033251e-06
1.29131862856134e-06
1.34090841292771e-06
1.37257807652455e-06
1.39183353774151e-06
1.40299397767505e-06
1.40916876499612e-06
1.41243460198981e-06
1.41408815887048e-06
1.41489074446147e-06
1.41526463286245e-06
1.41543195863565e-06
1.41550391284546e-06
1.41553361005881e-06
1.41554532354616e-06
1.41554968617076e-06
1.4155511615672e-06
1.41555152173167e-06
1.41555134070489e-06
1.41555054923427e-06
1.41554840086374e-06
1.41554279073227e-06
1.41552860470857e-06
1.4154939765285e-06
1.4154124340741e-06
1.41522723995345e-06
1.41482180454654e-06
1.41396699401573e-06
1.41223335391122e-06
1.40885578864072e-06
1.40254362438721e-06
1.39124467736102e-06
1.37190105849739e-06
1.34027472307293e-06
1.2909602351353e-06
1.21771775545646e-06
1.11422316090115e-06
9.75227203062711e-07
7.9795375433422e-07
5.83396865607569e-07
3.37064620255528e-07
9.82589138522677e-10
3.7600382607139e-12
5.23486871658987e-12
1.38025878807781e-09
4.7632157407194e-07
8.25883786433226e-07
1.13049049214665e-06
1.38206589751625e-06
1.57913463411013e-06
1.72564789570122e-06
1.82910219672564e-06
1.89853654318703e-06
1.94287216871478e-06
1.96983378572729e-06
1.98546798034072e-06
1.99412386683028e-06
1.99870586093547e-06
2.00102813523739e-06
2.00215657497567e-06
2.00268293048164e-06
2.00291882276836e-06
2.00302042491389e-06
2.00306243781191e-06
2.00307904883786e-06
2.00308525697105e-06
2.00308736941319e-06
2.00308789514744e-06
2.0030876535505e-06
2.00308656024879e-06
2.0030835756176e-06
2.00307577304899e-06
2.00305602916232e-06
2.00300779888191e-06
2.00289414126345e-06
2.00263582262429e-06
2.0020699200856e-06
2.00087606182718e-06
1.99845350317508e-06
1.9937315385273e-06
1.98490321953389e-06
1.9690941243952e-06
1.94201819434389e-06
1.89772814748871e-06
1.8286220676098e-06
1.7258891171364e-06
1.58052917160302e-06
1.38494155576262e-06
1.13486341538547e-06
8.31210814968409e-07
4.81224996575838e-07
1.40345128564754e-09
5.36107325130282e-12
6.75878022752357e-12
1.7822284138266e-09
6.13490299710756e-07
1.06085811225544e-06
1.44909129535633e-06
1.76871073867155e-06
2.01849021973806e-06
2.2038895588704e-06
2.33466956581005e-06
2.42239967300548e-06
2.47841192318748e-06
2.51248157978228e-06
2.53224647380232e-06
2.54319639984306e-06
2.54899740878128e-06
2.55194028345645e-06
2.55337181834936e-06
2.55404035510894e-06
2.5543403736454e-06
2.55446979716911e-06
2.5545234146583e-06
2.55454466585972e-06
2.55455263704583e-06
2.55455536701466e-06
2.55455605912952e-06
2.55455576956069e-06
2.55455440575938e-06
2.5545506601228e-06
2.55454085908456e-06
2.55451604578087e-06
2.55445539664615e-06
2.55431238119904e-06
2.5539871282329e-06
2.55327415331248e-06
2.55176917766002e-06
2.54871377632465e-06
2.54275568190668e-06
2.53161193772889e-06
2.51164940397155e-06
2.47744750100453e-06
2.42147722831769e-06
2.33409754123194e-06
2.20409651809559e-06
2.01994606997856e-06
1.77176993894824e-06
1.45376630662698e-06
1.0665528739268e-06
6.18722485067925e-07
1.80724159874899e-09
6.89751194409459e-12
8.20037838423365e-12
2.16253738049514e-09
7.42580238586821e-07
1.28092657063687e-06
1.74640345929638e-06
2.12854230599431e-06
2.42657148970585e-06
2.64747848588382e-06
2.80317532787362e-06
2.90757930016227e-06
2.97423447379722e-06
3.01478722714778e-06
3.03832375329915e-06
3.05137131607991e-06
3.05828890789167e-06
3.0618013747854e-06
3.06351172499407e-06
3.06431138855115e-06
3.06467072042268e-06
3.06482596576548e-06
3.06489040014355e-06
3.0649160020684e-06
3.06492564140318e-06
3.06492896525602e-06
3.06492982357341e-06
3.06492949801719e-06
3.06492789344163e-06
3.06492346054688e-06
3.06491185342757e-06
3.06488245896142e-06
3.06481058196582e-06
3.06464100100832e-06
3.06425511541214e-06
3.06340876848518e-06
3.06162136461148e-06
3.05799094128069e-06
3.05090874447934e-06
3.0376579404295e-06
3.01391340408835e-06
2.97321898706631e-06
2.90659998577102e-06
2.80254694567351e-06
2.64763747319036e-06
2.42799469504632e-06
2.13158683227264e-06
1.7510773994846e-06
1.28662466738619e-06
7.47824536866596e-07
2.1881042786225e-09
8.3457865915207e-12
9.54132518814059e-12
2.51647902844417e-09
8.62202798470733e-07
1.48397909455214e-06
2.01985459920435e-06
2.45871578361352e-06
2.80038433086033e-06
3.05334298218456e-06
3.23150818388484e-06
3.35094319385711e-06
3.42719557779251e-06
3.4735989587162e-06
3.50054309789518e-06
3.51548863292752e-06
3.52341829243677e-06
3.52744807289961e-06
3.52941222274278e-06
3.53033155417935e-06
3.53074517522325e-06
3.53092413779822e-06
3.5309985515864e-06
3.53102819227186e-06
3.5310393952037e-06
3.531043285806e-06
3.5310443092885e-06
3.53104395830396e-06
3.53104214048329e-06
3.5310370915257e-06
3.53102386590822e-06
3.53099036936666e-06
3.53090843878553e-06
3.53071505700763e-06
3.5302748020831e-06
3.52930874692802e-06
3.52726761587864e-06
3.52312017500823e-06
3.51502653652917e-06
3.4998786846174e-06
3.47272731344775e-06
3.42618162368931e-06
3.34996079108657e-06
3.23086413498502e-06
3.05346097544689e-06
2.80172474312155e-06
2.46162000855897e-06
2.02432537860052e-06
1.48943350870347e-06
8.67243466730412e-07
2.54171282483916e-09
9.68908112878249e-12
1.07693536739653e-11
2.84087800089028e-09
9.71452000451222e-07
1.66872461938147e-06
2.26796527802435e-06
2.75768755953801e-06
3.13838621359522e-06
3.41996710427946e-06
3.61818217104381e-06
3.75102936275074e-06
3.83584920233818e-06
3.88748000261193e-06
3.91747247315602e-06
3.93411842471246e-06
3.94295640971187e-06
3.94745141164822e-06
3.94964432241535e-06
3.95067179256201e-06
3.9511346172709e-06
3.95133515146786e-06
3.95141868306543e-06
3.95145203743265e-06
3.95146469258645e-06
3.9514691192799e-06
3.95147030541593e-06
3.95146993875552e-06
3.95146793285145e-06
3.9514623355622e-06
3.95144767128042e-06
3.95141053391487e-06
3.95131968412845e-06
3.95110518067499e-06
3.9506166436539e-06
3.94954419563038e-06
3.94727737476773e-06
3.94266970256989e-06
3.93367512868218e-06
3.91683657712436e-06
3.88664757871916e-06
3.83488268618615e-06
3.75009386453705e-06
3.61756691657556e-06
3.42006870982118e-06
3.13963197525024e-06
2.76038968920399e-06
2.27211922669171e-06
1.67378915567588e-06
9.76157213428354e-07
2.86519758175297e-09
1.09163711267573e-11
1.18775279189857e-11
3.13392675829363e-09
1.0698598967973e-06
1.83459485310247e-06
2.49020101464561e-06
3.02502302354643e-06
3.44025967191503e-06
3.74713929192248e-06
3.96306828118089e-06
4.10776657906649e-06
4.20016113892042e-06
4.25641808519936e-06
4.28911169178496e-06
4.30726671095805e-06
4.31691224744848e-06
4.32182169431742e-06
4.32421886154753e-06
4.32534313483815e-06
4.32585013599104e-06
4.32607010685504e-06
4.3261618917041e-06
4.32619862954018e-06
4.32621262119732e-06
4.32621754990795e-06
4.32621889474354e-06
4.32621852118614e-06
4.32621635023558e-06
4.32621026838617e-06
4.32619433550738e-06
4.32615399453491e-06
4.32605530316258e-06
4.32582222879656e-06
4.32529121826684e-06
4.32412511069048e-06
4.32165946506483e-06
4.31664606989197e-06
4.30685679929379e-06
4.28852619803692e-06
4.2556554437713e-06
4.19928132442586e-06
4.10692357430186e-06
3.96252811542508e-06
3.74726261426384e-06
3.44142993513737e-06
3.02751389332119e-06
2.49399763801992e-06
1.83920632472045e-06
1.07416637394993e-06
3.15700238085422e-09
1.20217729065742e-11
1.2863476836524e-11
3.39498798023294e-09
1.1573290963079e-06
1.98161801767571e-06
2.68679303066191e-06
3.26117433409828e-06
3.70665763672731e-06
4.03567454560308e-06
4.26710086532758e-06
4.42217049599353e-06
4.52119869181243e-06
4.58151127172083e-06
4.61657605040329e-06
4.63605788586692e-06
4.64641473085544e-06
4.65168997385501e-06
4.65426783287911e-06
4.65547796179843e-06
4.65602425985317e-06
4.65626158248216e-06
4.65636076946669e-06
4.65640056170363e-06
4.65641577204895e-06
4.65642116608678e-06
4.65642266383095e-06
4.65642229054203e-06
4.65641997624465e-06
4.65641346944929e-06
4.65639642710247e-06
4.65635329178563e-06
4.65624776871e-06
4.65599851753275e-06
4.65543049467275e-06
4.65418272022542e-06
4.65154359383967e-06
4.64617597381095e-06
4.63569250739071e-06
4.61605798576839e-06
4.58084282712755e-06
4.52043824366456e-06
4.42146044695605e-06
4.26668169477509e-06
4.03586650595743e-06
3.70779439819763e-06
3.26348504033248e-06
2.69024865556695e-06
1.98577806575651e-06
1.16122746501235e-06
3.41669313930411e-09
1.30037986745757e-11
1.37286161169966e-11
3.62439660794498e-09
1.2340648163099e-06
2.11029891799491e-06
2.85857431666231e-06
3.46728209297727e-06
3.93897976905335e-06
4.28717294504647e-06
4.53202413398869e-06
4.69608235258722e-06
4.80086452361766e-06
4.86469890473332e-06
4.90182560118354e-06
4.9224630749521e-06
4.93344059857411e-06
4.93903568725018e-06
4.94177190263108e-06
4.94305746886987e-06
4.94363839812549e-06
4.94389106734095e-06
4.94399683149854e-06
4.94403935547203e-06
4.94405566662616e-06
4.94406148759559e-06
4.94406313060425e-06
4.94406276343961e-06
4.9440603258927e-06
4.9440534495233e-06
4.9440354452784e-06
4.94398989470063e-06
4.94387847541408e-06
4.9436152672146e-06
4.94301530213338e-06
4.94169701036634e-06
4.9389079976321e-06
4.93323415510648e-06
4.92215027212913e-06
4.90138753599939e-06
4.86414328800268e-06
4.80024957013206e-06
4.69553987388983e-06
4.53176922829128e-06
4.28748453836295e-06
3.94013963032006e-06
3.46947161356642e-06
2.86174595336877e-06
2.11405644803827e-06
1.23758575845382e-06
3.64476219690071e-09
1.38645804521281e-11
1.4477415245118e-11
3.82327656111115e-09
1.30051374741662e-06
2.22151523526391e-06
3.00684166473836e-06
3.64501149754701e-06
4.13919000526586e-06
4.50382434798939e-06
4.76018830144247e-06
4.93195961870858e-06
5.04168389136006e-06
5.10854680701771e-06
5.1474491902921e-06
5.16908353402863e-06
5.18059746530173e-06
5.18646954875819e-06
5.18934322211544e-06
5.19069444017601e-06
5.19130559846515e-06
5.19157171173469e-06
5.19168326447202e-06
5.19172820831833e-06
5.1917455041726e-06
5.19175171282104e-06
5.1917534919867e-06
5.19175313545932e-06
5.19175059307771e-06
5.1917433982308e-06
5.19172456778471e-06
5.19167694962309e-06
5.19156049144688e-06
5.19128536126525e-06
5.19065810638691e-06
5.18927953983888e-06
5.18636234032042e-06
5.18042646847458e-06
5.16882858362866e-06
5.14709965986167e-06
5.10811726363683e-06
5.04123414930406e-06
4.93161286970125e-06
4.76013624749997e-06
4.5043062492582e-06
4.14043650198659e-06
3.64715517974272e-06
3.00981207466276e-06
2.22495026904685e-06
1.30371524158201e-06
3.84244725389482e-09
1.46091380040006e-11
1.51167160329885e-11
3.99337064466203e-09
1.35730897342367e-06
2.3164268358041e-06
3.13323746795778e-06
3.79641396333153e-06
4.3096639859018e-06
4.68824617737715e-06
4.95438102832716e-06
5.13270339224823e-06
5.2466295490078e-06
5.31607070008393e-06
5.35648702697654e-06
5.37897275139129e-06
5.39094567782693e-06
5.39705528160476e-06
5.4000470993383e-06
5.40145489238227e-06
5.40209217857636e-06
5.40236995393343e-06
5.40248655132801e-06
5.40253361771824e-06
5.40255178561498e-06
5.40255834261946e-06
5.40256024775013e-06
5.40255990514193e-06
5.40255727466274e-06
5.40254980815242e-06
5.40253027519299e-06
5.40248090516439e-06
5.40236018542927e-06
5.40207497823913e-06
5.40142465399768e-06
5.39999511231218e-06
5.39696944634955e-06
5.39081174226277e-06
5.37877851455599e-06
5.35623097600788e-06
5.31577554025216e-06
5.24635855948967e-06
5.13257368745426e-06
4.95456408146359e-06
4.68894501844263e-06
4.31106096336131e-06
3.79859350566072e-06
3.1361021341824e-06
2.31963638457088e-06
1.36026500090916e-06
4.01156476973711e-09
1.52447040105775e-11
1.56550893958647e-11
4.13687835013959e-09
1.40521855643877e-06
2.3963928427422e-06
3.23964310991676e-06
3.92380346661393e-06
4.45305355203572e-06
4.84333993158627e-06
5.11767869924821e-06
5.30150634694194e-06
5.41896764223327e-06
5.49058087603493e-06
5.53227465366087e-06
5.55548003073708e-06
5.56784169284612e-06
5.57415289157239e-06
5.57724522180562e-06
5.57870127382093e-06
5.57936091480269e-06
5.57964870431282e-06
5.57976965364357e-06
5.57981856289854e-06
5.57983749511105e-06
5.57984436178426e-06
5.5798463819714e-06
5.57984605548865e-06
5.57984335198571e-06
5.57983565634147e-06
5.57981553255128e-06
5.57976469440692e-06
5.57964041026177e-06
5.57934677989684e-06
5.57867717067571e-06
5.57720499817032e-06
5.57408857359454e-06
5.56774515779542e-06
5.55534731180991e-06
5.53211390806333e-06
5.49042399341755e-06
5.41888315660265e-06
5.30160806301723e-06
5.11812167069276e-06
4.84429547033018e-06
4.45465990533559e-06
3.92609880141086e-06
3.24249956032389e-06
2.39947921950614e-06
1.40800959507428e-06
4.15435279888089e-09
1.57800951135031e-11
1.61022248304254e-11
4.2562997742361e-09
1.44509668783292e-06
2.46289386990861e-06
3.32807978541171e-06
4.02964206304905e-06
4.57216164861459e-06
4.97215891817066e-06
5.25330944100461e-06
5.44171273580585e-06
5.56211584365091e-06
5.63553921424808e-06
5.67829931722056e-06
5.70210650427304e-06
5.71479389914036e-06
5.72127439147695e-06
5.72445133304964e-06
5.72594811847583e-06
5.72662668598921e-06
5.72692298490272e-06
5.72704764947191e-06
5.72709814206801e-06
5.7271177371124e-06
5.72712487608386e-06
5.7271270000856e-06
5.72712669106213e-06
5.72712392800818e-06
5.72711604152551e-06
5.72709542675743e-06
5.72704337283538e-06
5.72691614262811e-06
5.72661555473694e-06
5.72593001448353e-06
5.72442260974531e-06
5.72123113651628e-06
5.7147340723128e-06
5.70203441831038e-06
5.67823308579188e-06
5.635520682309e-06
5.56222038159207e-06
5.44205355962478e-06
5.25402919999843e-06
4.97340222241867e-06
4.57402759838116e-06
4.03212535158436e-06
3.33101950117022e-06
2.46595567232719e-06
1.44780221227904e-06
4.27332121606421e-09
1.6225122525344e-11
1.6468361644449e-11
4.35428843787784e-09
1.47783795221999e-06
2.51745981392549e-06
3.40061682147103e-06
4.11643429980453e-06
4.66982704851391e-06
5.07778639124589e-06
5.36452689474617e-06
5.55668935095422e-06
5.67951255716588e-06
5.75442732732652e-06
5.79806750014802e-06
5.822372320351e-06
5.8353296207282e-06
5.8419507091321e-06
5.84519809340079e-06
5.84672888426808e-06
5.84742330148145e-06
5.84772675286479e-06
5.84785455491379e-06
5.84790639322084e-06
5.84792655687052e-06
5.84793393265515e-06
5.84793614922834e-06
5.84793585829508e-06
5.84793304762052e-06
5.84792500444807e-06
5.84790398708124e-06
5.84785093943049e-06
5.8477213056558e-06
5.84741504459323e-06
5.84671651182173e-06
5.84518035862471e-06
5.84192760973633e-06
5.83530501863623e-06
5.82235866377588e-06
5.79809289960768e-06
5.75454406665559e-06
5.67980413219111e-06
5.55727086860077e-06
5.36553249238574e-06
5.07933905328089e-06
4.671991974853e-06
4.11916606435166e-06
3.40371975363384e-06
2.52058561096796e-06
1.48053101575813e-06
4.37111156690856e-09
1.65900490523819e-11
1.6763779017564e-11
4.43351802883496e-09
1.5043360708565e-06
2.56160509274962e-06
3.45928968249589e-06
4.18663288324127e-06
4.74882137785115e-06
5.16322665701602e-06
5.45449736656034e-06
5.64971010604227e-06
5.77449988534673e-06
5.85062854784792e-06
5.89498633374002e-06
5.9196977339916e-06
5.93287603290942e-06
5.93961251270912e-06
5.9429178600376e-06
5.94447671133882e-06
5.9451842493495e-06
5.94549364424721e-06
5.94562406597143e-06
5.94567703522887e-06
5.94569768123288e-06
5.94570526069865e-06
5.94570755889917e-06
5.94570728615215e-06
5.94570443832589e-06
5.9456962686256e-06
5.94567492613269e-06
5.94562107821725e-06
5.94548951197642e-06
5.9451786914561e-06
5.94446971311859e-06
5.94291043135228e-06
5.93960834706755e-06
5.93288461406437e-06
5.91973935202156e-06
5.89509892672158e-06
5.85087504831149e-06
5.77497287348513e-06
5.65052869719505e-06
5.45579073001157e-06
5.1651009651566e-06
4.75131310970311e-06
4.18966013977415e-06
3.46262121549167e-06
2.56486966461938e-06
1.50707989241478e-06
4.45037092405079e-09
1.68851067740676e-11
1.69983614690247e-11
4.49656786688609e-09
1.5254484935692e-06
2.59677331393066e-06
3.50603006187912e-06
4.24255830907569e-06
4.81176137813161e-06
5.23131225370555e-06
5.52620358617821e-06
5.7238575563092e-06
5.85022373098735e-06
5.9273271622762e-06
5.97226232080378e-06
5.99730153984279e-06
6.01065843731784e-06
6.01748840303645e-06
6.02084083756483e-06
6.02242255237259e-06
6.02314081721592e-06
6.02345509052121e-06
6.02358767320647e-06
6.02364158168306e-06
6.02366263215075e-06
6.02367038484792e-06
6.023672754266e-06
6.02367249940663e-06
6.02366962353038e-06
6.02366135370409e-06
6.02363975341882e-06
6.02358527236632e-06
6.02345217920641e-06
6.02313775631827e-06
6.02242051955698e-06
6.0208429339333e-06
6.01750176443758e-06
6.01069782288775e-06
5.99739468131107e-06
5.9724566508045e-06
5.92769623338508e-06
5.85086983952891e-06
5.72490552615098e-06
5.52778067993139e-06
5.23351216976695e-06
4.81459672780298e-06
4.24591442798526e-06
3.50964010536044e-06
2.60023613229732e-06
1.52829483613758e-06
4.51364394250862e-09
1.71200891976131e-11
1.7181249542363e-11
4.54582999298653e-09
1.54196766179912e-06
2.62429254601061e-06
3.54260948099639e-06
4.28633406812635e-06
4.86103817247977e-06
5.28462909434121e-06
5.58236705334214e-06
5.7819434006707e-06
5.90955312114436e-06
5.98742700847737e-06
6.03281950150398e-06
6.05811899127918e-06
6.0716180453778e-06
6.0785226253482e-06
6.08191275325987e-06
6.08351282993035e-06
6.08423974112332e-06
6.08455796357374e-06
6.08469230500206e-06
6.08474698342168e-06
6.08476836888591e-06
6.08477626724819e-06
6.08477869819312e-06
6.08477846066053e-06
6.08477556458981e-06
6.08476721758661e-06
6.08474541766471e-06
6.08469044699718e-06
6.0845561739268e-06
6.0842389659703e-06
6.08351533645443e-06
6.08192355998321e-06
6.07855203995677e-06
6.07168572256671e-06
6.0582596415782e-06
6.03308960749554e-06
5.98791052700337e-06
5.91036240433076e-06
5.78321026206791e-06
5.58421937071724e-06
5.28715183360609e-06
4.86422443096134e-06
4.29003999441365e-06
3.54653325883754e-06
2.6279980629411e-06
1.54495668196968e-06
4.5632855281304e-09
1.73040253653902e-11
1.73205768472773e-11
4.58343844343607e-09
1.55459908228772e-06
2.64534132674654e-06
3.57059651959389e-06
4.3198375580789e-06
4.89876368657857e-06
5.3254597493275e-06
5.62538917461911e-06
5.82644819040035e-06
5.95501899465254e-06
6.0334896893949e-06
6.07923732250593e-06
6.10473947049217e-06
6.11834953778696e-06
6.12531256961292e-06
6.12873232694464e-06
6.13034689119602e-06
6.13108065299863e-06
6.13140201976153e-06
6.13153777006748e-06
6.13159307032163e-06
6.13161472948373e-06
6.13162274888009e-06
6.13162523249177e-06
6.13162501156026e-06
6.13162210204096e-06
6.13161369772417e-06
6.13159174826763e-06
6.13153641100914e-06
6.13140125444091e-06
6.1310819579586e-06
6.13035352329648e-06
6.12875105218421e-06
6.12535660003743e-06
6.1184430409731e-06
6.10492365303554e-06
6.07957721500416e-06
6.03407931092503e-06
5.95598085783532e-06
5.82792199834264e-06
5.6275054037623e-06
5.32829772952083e-06
4.9023007520777e-06
4.32390396611901e-06
3.57485655766681e-06
2.64932056759815e-06
1.55776026425985e-06
4.60139435841924e-09
1.74449354346841e-11
1.74232864541231e-11
4.61121909730533e-09
1.56394570614996e-06
2.66092455750644e-06
3.59132656797849e-06
4.34466541332777e-06
4.92673282087134e-06
5.35574339435106e-06
5.65730967470935e-06
5.85947870542216e-06
5.98877090214385e-06
6.06769084626588e-06
6.11370665037232e-06
6.13936234972699e-06
6.15305684006396e-06
6.1600644996586e-06
6.16350697588173e-06
6.16513270067511e-06
6.16587176741543e-06
6.16619558386779e-06
6.16633244008973e-06
6.16638823335488e-06
6.16641011256055e-06
6.16641823122641e-06
6.16642075953353e-06
6.16642055440908e-06
6.16641763722742e-06
6.16640919280617e-06
6.16638713712027e-06
6.16633153921131e-06
6.16619575357318e-06
6.16587496494404e-06
6.16514308170403e-06
6.16353289834309e-06
6.16012183297651e-06
6.15317390635721e-06
6.13958638840512e-06
6.11411073328298e-06
6.06837865011685e-06
5.98987503844271e-06
5.86114734707524e-06
5.65967738238087e-06
5.35888631585216e-06
4.93061562460907e-06
4.34909535873754e-06
3.59593536577882e-06
2.66519749264585e-06
1.56729946885764e-06
4.62976549255085e-09
1.75496598093894e-11
1.74950140004194e-11
4.63065699037308e-09
1.57049766806199e-06
2.67185776135006e-06
3.6058821458157e-06
4.36211098832717e-06
4.94639889584495e-06
5.37704980313154e-06
5.67977957025737e-06
5.88274022953906e-06
6.01254881612284e-06
6.09179166996598e-06
6.13800109747071e-06
6.16376820659997e-06
6.17752427446667e-06
6.18456467014371e-06
6.18802391319643e-06
6.18965792910485e-06
6.19040096577522e-06
6.19072663098969e-06
6.1908643305201e-06
6.19092050484884e-06
6.19094255729764e-06
6.19095075613245e-06
6.19095332204942e-06
6.19095313192814e-06
6.19095021207607e-06
6.19094174257667e-06
6.1909196185197e-06
6.1908638524228e-06
6.19072765920874e-06
6.19040589623558e-06
6.18967173924226e-06
6.18805642030597e-06
6.18463418900394e-06
6.17766297064786e-06
6.16402894260245e-06
6.13846452185742e-06
6.09257070998523e-06
6.013786024539e-06
5.88459258014611e-06
5.68238675621723e-06
5.38048663540211e-06
4.95061980572867e-06
4.36690263980269e-06
3.61084503962501e-06
2.67643595166348e-06
1.57405724595816e-06
4.64985896534832e-09
1.76237489474983e-11
1.75400218332212e-11
4.64287716795164e-09
1.57462619181547e-06
2.6787578056056e-06
3.6150813595518e-06
4.3731511833662e-06
4.95885928928331e-06
5.39056411991503e-06
5.69404531999975e-06
5.89752026169995e-06
6.02766654122369e-06
6.10712211381252e-06
6.15346010852972e-06
6.17930183357284e-06
6.19309952434025e-06
6.20016226552502e-06
6.20363307311669e-06
6.20527287153642e-06
6.20601871077806e-06
6.2063456992286e-06
6.20648401241063e-06
6.20654046990303e-06
6.20656265466066e-06
6.20657091693345e-06
6.2065735142076e-06
6.20657333833305e-06
6.2065704201826e-06
6.20656193896102e-06
6.20653978036804e-06
6.20648392879795e-06
6.20634752586192e-06
6.20602524987557e-06
6.20528986267927e-06
6.20367168990227e-06
6.20024310214242e-06
6.19325834389464e-06
6.17959679258156e-06
6.1539790484229e-06
6.10798685368549e-06
6.02902938494819e-06
5.89954713088094e-06
5.69688171577546e-06
5.39428479878586e-06
4.96341021196961e-06
4.37830026762183e-06
3.62039914274718e-06
2.68364687422365e-06
1.57839943091013e-06
4.66278055547997e-09
1.76713984437772e-11
1.75611682514064e-11
4.64863507041076e-09
1.57658044514739e-06
2.6820381597937e-06
3.61947199472425e-06
4.378439644403e-06
4.96484799144198e-06
5.39707894760887e-06
5.70094057255586e-06
5.90468001870908e-06
6.03500304462594e-06
6.11457211410398e-06
6.16098010939711e-06
6.1868633440472e-06
6.20068471677747e-06
6.20776047128066e-06
6.21123817778751e-06
6.2128815135475e-06
6.21362911385269e-06
6.2139569590381e-06
6.21409568374723e-06
6.21415233950141e-06
6.21417462191431e-06
6.21418293393991e-06
6.21418555762905e-06
6.21418539540119e-06
6.21418248248094e-06
6.21417400085545e-06
6.21415183759451e-06
6.21409597537769e-06
6.21395954383435e-06
6.21363717890641e-06
6.2129015209391e-06
6.2112825884283e-06
6.20785204673566e-06
6.20086264968909e-06
6.18719085618168e-06
6.16155196024781e-06
6.11551874270761e-06
6.03648633660448e-06
5.90687485253885e-06
5.70399861665179e-06
5.40107566741553e-06
4.96972199260802e-06
4.38394134344642e-06
3.62514294837611e-06
2.687239718664e-06
1.58057121668693e-06
4.66927092094266e-09
1.76954142138525e-11
1.7559894825814e-11
4.64831196338546e-09
1.57648607544449e-06
2.68190688445553e-06
3.61932922227001e-06
4.37830428046355e-06
4.96473290465916e-06
5.39699141194076e-06
5.7008830100941e-06
5.90465109104545e-06
6.03499895942251e-06
6.11458792087144e-06
6.16101075007843e-06
6.18690436147525e-06
6.20073257536469e-06
6.20781260196271e-06
6.21129284827696e-06
6.21293763012539e-06
6.21368602513583e-06
6.21401429646658e-06
6.2141532475506e-06
6.21421002469691e-06
6.21423237394881e-06
6.21424072385326e-06
6.21424336976035e-06
6.21424322067492e-06
6.21424031610545e-06
6.21423184449879e-06
6.21420970488616e-06
6.21415390404958e-06
6.2140176192761e-06
6.21369557640107e-06
6.2129605759528e-06
6.21134290412419e-06
6.20791464230199e-06
6.20092913821219e-06
6.18726361435932e-06
6.16163421718368e-06
6.1156144834612e-06
6.03659990944127e-06
5.90701020927423e-06
5.70415820884636e-06
5.40125914060703e-06
4.96992490678357e-06
4.38415413636638e-06
3.62535022450003e-06
2.6874197415574e-06
1.58069526618153e-06
4.66969979641399e-09
1.76971949652946e-11
1.75362297192635e-11
4.64191534948253e-09
1.5743451975812e-06
2.67836640938925e-06
3.61465510012435e-06
4.37274653267188e-06
4.95851491378289e-06
5.39030207340485e-06
5.69387313571395e-06
5.89743413700907e-06
6.02765522180662e-06
6.10717077936197e-06
6.15355357110544e-06
6.17942665805622e-06
6.19324504035397e-06
6.20032071007014e-06
6.20379920676858e-06
6.20544338396297e-06
6.20619162947602e-06
6.20651990779131e-06
6.20665890564194e-06
6.20671572981649e-06
6.20673811611678e-06
6.20674649237819e-06
6.20674915639673e-06
6.20674901998498e-06
6.2067461270187e-06
6.20673767629868e-06
6.20671558979231e-06
6.20665992498742e-06
6.20652396798375e-06
6.20620266956266e-06
6.20546927687462e-06
6.20385492613054e-06
6.20043324660971e-06
6.19346027746127e-06
6.17981769932587e-06
6.15422867527681e-06
6.10827720485833e-06
6.02937351673963e-06
5.89995683848774e-06
5.69736419104013e-06
5.39483870246728e-06
4.96402186386202e-06
4.37894061644008e-06
3.62102176133312e-06
2.68418658545579e-06
1.57877058686869e-06
4.66406187358808e-09
1.76767146065858e-11
1.74887996332941e-11
4.62908173785543e-09
1.57003694001706e-06
2.67121404453265e-06
3.6051789568112e-06
4.36144162276203e-06
4.94582803620928e-06
5.37661499888858e-06
5.67949428034022e-06
5.88259883775431e-06
6.01253298634106e-06
6.09187683196742e-06
6.13816186270465e-06
6.1639820017153e-06
6.17777310989913e-06
6.18483542501683e-06
6.18830771536558e-06
6.18994916523537e-06
6.19069628768854e-06
6.19102414235877e-06
6.19116300298191e-06
6.19121979808702e-06
6.19124219087861e-06
6.19125058158836e-06
6.19125325945523e-06
6.19125313534002e-06
6.19125025770857e-06
6.19124184000526e-06
6.19121983903932e-06
6.19116439170613e-06
6.19102895870337e-06
6.19070886060689e-06
6.18997809756282e-06
6.18836927704702e-06
6.18495878088243e-06
6.17800756731052e-06
6.16440569164141e-06
6.13888985841144e-06
6.09306479302029e-06
6.01437063850859e-06
5.88528716699387e-06
5.68320274503907e-06
5.38142086649383e-06
4.95164828416553e-06
4.36797576260105e-06
3.61188469717494e-06
2.67733376597507e-06
1.57467231893861e-06
4.6519768627855e-09
1.76325301130553e-11
1.74148312197835e-11
4.60907759344663e-09
1.56331805385796e-06
2.66004309752587e-06