/*--------------------------------*- C++ -*----------------------------------*\
  =========                 |
  \\      /  F ield         | OpenFOAM: The Open Source CFD Toolbox
   \\    /   O peration     | Website:  https://openfoam.org
    \\  /    A nd           | Version:  10
     \\/     M anipulation  |
\*---------------------------------------------------------------------------*/
FoamFile
{
    format      ascii;
    class       volScalarField;
    location    "8.4";
    object      h;
}
// * * * * * * * * * * * * * * * * * * * * * * * * * * * * * * * * * * * * * //

dimensions      [0 2 -2 0 0 0 0];

internalField   nonuniform List<scalar> 
2500
(
6150.54325413515
6148.26557791471
6139.32488083875
6131.99606376851
6127.0548998854
6123.95162552682
6122.06908473917
6120.95556360264
6120.31532481083
6119.96004570715
6119.7686247581
6119.66963241551
6119.6203327415
6119.59613150313
6119.5844799402
6119.57866933811
6119.57605177122
6119.57451392367
6119.57340829498
6119.57273712752
6119.57223487479
6119.57183519043
6119.57152179542
6119.57132942207
6119.57114043681
6119.57099708362
6119.5709545811
6119.57096418367
6119.57103928794
6119.57119632993
6119.57147072529
6119.57200003665
6119.57279021842
6119.57421885157
6119.57701841966
6119.58279552438
6119.59489351438
6119.61986404293
6119.67133606066
6119.7725867871
6119.96612471479
6120.32381407908
6120.96317688303
6122.0711371759
6123.94443113558
6127.03505969272
6131.97940086457
6139.34901921737
6148.32962349108
6150.45645554638
5410.99504561343
5392.69562052396
5366.39122170026
5345.57073804038
5331.3946042105
5322.33074857529
5316.71527424045
5313.3202981515
5311.32342061366
5310.18643092024
5309.56110602987
5309.22991397053
5309.06103092313
5308.97782719437
5308.93817834509
5308.91975444967
5308.9115204544
5308.90774428573
5308.9058852453
5308.90495381598
5308.90441109101
5308.90404152974
5308.90377265707
5308.90359454115
5308.90344133688
5308.90332418045
5308.9032721264
5308.90326506707
5308.90331466198
5308.90346839339
5308.90383575729
5308.90468236806
5308.90650664562
5308.91053893239
5308.91945489627
5308.93897768932
5308.98073744226
5309.0673853684
5309.241663489
5309.57940551492
5310.21132846903
5311.35281184245
5313.34667633128
5316.72615698401
5322.31340416629
5331.35046977871
5345.55171930501
5366.51051163141
5392.97153926179
5410.58349732143
4633.68817525639
4598.44647194311
4559.39726264755
4529.69975953294
4509.71612039292
4497.00887031306
4489.16023285483
4484.42211933044
4481.6352624082
4480.04615267437
4479.17059734189
4478.70560677621
4478.4677622862
4478.35046076758
4478.29462953619
4478.26891121778
4478.25747747189
4478.25245264682
4478.25020692063
4478.24918453034
4478.24866715206
4478.24835585544
4478.24814420285
4478.24800262951
4478.24788975715
4478.24780263002
4478.2477548812
4478.24773693187
4478.2477640065
4478.24790269101
4478.24829781526
4478.24929566581
4478.25166734956
4478.25713560077
4478.26947867929
4478.29677018796
4478.35537866208
4478.47712968761
4478.72152376411
4479.19462563881
4480.0784492966
4481.67290860196
4484.45632954838
4489.17632860735
4496.99328049549
4509.68086682976
4529.73381902956
4559.68970829455
4599.09442227622
4633.63537769117
3904.74039399032
3858.63664671162
3815.04765232122
3783.23402571182
3762.36108930289
3749.36983010144
3741.50134079673
3736.83343762861
3734.12899008592
3732.60654650323
3731.77703029468
3731.3407163928
3731.11943025021
3731.01118584535
3730.9600896557
3730.93678475156
3730.92652540506
3730.92210992808
3730.92021503699
3730.91939422714
3730.91900741743
3730.91878858133
3730.91864336048
3730.91854574244
3730.91847102006
3730.91841182614
3730.91837322091
3730.91835043011
3730.91834926451
3730.91843098448
3730.91872672891
3730.9195341984
3730.92156360478
3730.92635530253
3730.93732669123
3730.96188035217
3731.01517271995
3731.12698513647
3731.35357255947
3731.79671719323
3732.63364382055
3734.16168451559
3736.86540452207
3741.52177169591
3749.37128655359
3762.3679911625
3783.36197464357
3815.54184583516
3859.70424085993
3905.54330118475
3283.81826722414
3235.0988279861
3193.71134887216
3164.67329002049
3146.13295294306
3134.8613146998
3128.17764086119
3124.28526134355
3122.06478547031
3120.830542871
3120.16501610343
3119.81792624828
3119.64312901617
3119.55815257178
3119.51827291364
3119.50020235008
3119.49230592636
3119.48895604241
3119.48755915847
3119.48697998045
3119.4867249527
3119.4865892816
3119.48650069641
3119.48644131136
3119.48639736278
3119.48636107099
3119.48633313812
3119.48631065018
3119.48629593368
3119.48633007494
3119.48651444078
3119.48708051874
3119.4885800564
3119.49218812251
3119.50053318533
3119.51938196966
3119.56063231183
3119.6478687027
3119.82608453599
3120.17773916741
3120.84850494243
3122.08723410025
3124.3086593313
3128.19601533413
3134.87402759432
3146.17294838215
3164.8677540209
3194.33548385458
3236.4707052968
3285.48179151701
2797.77932447007
2753.39345871265
2718.58266062457
2695.04286245666
2680.41984544922
2671.73990367842
2666.70234127773
2663.82219562364
2662.20370622923
2661.31470169438
2660.83975192317
2660.59381622216
2660.47064246133
2660.41102793527
2660.38316071982
2660.37058870095
2660.36512641589
2660.36283590129
2660.36190382225
2660.36153408882
2660.3613837487
2660.36131028234
2660.3612630701
2660.36123163584
2660.36120935204
2660.36118956373
2660.36117115287
2660.361152274
2660.36113643237
2660.36114136368
2660.36123626133
2660.36159057693
2660.36258867887
2660.36503359537
2660.37073353525
2660.3837024511
2660.4122670236
2660.47304790493
2660.5980244624
2660.84645066474
2661.3244069519
2662.21623520471
2663.83592012651
2666.71478081492
2671.75465090907
2680.47169383545
2695.25421134526
2719.22752446291
2754.8594291649
2799.97605060585
2445.19275432653
2409.16323041616
2382.6496092299
2365.32301735202
2354.84547038239
2348.77195818964
2345.32122803809
2343.38369695652
2342.3105516698
2341.72757237155
2341.41865758676
2341.25964174875
2341.18033478765
2341.1420681382
2341.12422512443
2341.11619899797
2341.11272780338
2341.11128714049
2341.11071431571
2341.11049768832
2341.11041819249
2341.11038477293
2341.11036396121
2341.11035018592
2341.11034130177
2341.11033205607
2341.11032090671
2341.1103066941
2341.11029186
2341.11028530696
2341.11032627122
2341.11052517553
2341.11113534314
2341.11265894956
2341.11623613329
2341.12442426933
2341.14254725959
2341.18128886536
2341.26135085082
2341.42144904303
2341.73173256021
2342.31606560361
2343.38987525513
2345.32733090278
2348.7827762377
2354.8917449806
2365.50963240312
2383.22154959186
2410.51818334886
2447.49594449641
2206.56409376502
2179.98545629372
2161.43606527053
2149.69184539318
2142.77248959364
2138.8535405401
2136.67291867145
2135.4700016717
2134.81296378433
2134.4597003762
2134.27386926647
2134.1786790322
2134.13135217741
2134.10856068117
2134.09794866378
2134.09318417955
2134.0911314579
2134.09028773905
2134.08996008544
2134.08984262817
2134.08980508883
2134.08979387512
2134.08978761138
2134.08978338365
2134.0897816306
2134.08977833589
2134.08977212856
2134.08976238156
2134.08975040874
2134.08974147176
2134.08975418455
2134.08985543239
2134.09020204852
2134.09108637348
2134.09317746009
2134.09798804913
2134.10867384869
2134.13159256557
2134.17913355374
2134.27464911138
2134.46090979243
2134.81457068032
2135.47164313442
2136.67438980598
2138.85886790498
2142.8052113822
2149.83302364812
2161.88426895586
2181.09700931973
2208.62939905715
2055.04448445852
2036.9865996102
2024.94243847669
2017.53747262791
2013.28231846812
2010.92601155532
2009.64136070461
2008.94485884667
2008.56953084692
2008.36968911051
2008.26525044311
2008.2119691868
2008.18553778262
2008.17282246155
2008.16690554811
2008.16425200954
2008.16311254992
2008.16264865012
2008.16247281582
2008.162413346
2008.16239876439
2008.16239817333
2008.16239810027
2008.16239802358
2008.16239887592
2008.16239839858
2008.16239518699
2008.16238906062
2008.16238048136
2008.1623729076
2008.16237419904
2008.1624210474
2008.16260472394
2008.16308695156
2008.1642362718
2008.16689149423
2008.17280418453
2008.18551267165
2008.21194261443
2008.26523348391
2008.36968430922
2008.56945664514
2008.94442410326
2009.64036243522
2010.92703509212
2013.30131722331
2017.63154724291
2025.25878485122
2037.81073863424
2056.68742514628
1964.3448504774
1952.93415791391
1945.61803880494
1941.2408843024
1938.78492484009
1937.45425381158
1936.74307568477
1936.36398697322
1936.16237931959
1936.05602768182
1936.00077771319
1935.97268551349
1935.9587705853
1935.9520787789
1935.94896461482
1935.94756880032
1935.9469712372
1935.94673031266
1935.94664122828
1935.9466142553
1935.94661058463
1935.94661253515
1935.94661435522
1935.94661580931
1935.94661712978
1935.94661724932
1935.94661576647
1935.94661215542
1935.9466065421
1935.94660082525
1935.94659877999
1935.94661880379
1935.94671019441
1935.94695890959
1935.94755705277
1935.94894383084
1935.95203648317
1935.95869079125
1935.97255086259
1936.00056747248
1936.05570646206
1936.16184332773
1936.36296513541
1936.74126401061
1937.45294570674
1938.79381812468
1941.2969612584
1945.82189671021
1953.49384136333
1965.5297887128
1912.94181007253
1906.18455679871
1901.99997076712
1899.55898924112
1898.22015710915
1897.50985575272
1897.13753515188
1896.94235930458
1896.83989546147
1896.78632667237
1896.75864995817
1896.74461678586
1896.73767189416
1896.73433117122
1896.73277557391
1896.73207843887
1896.73178085332
1896.73166210342
1896.73161967844
1896.73160879603
1896.73160878381
1896.73161071724
1896.73161261187
1896.73161414999
1896.73161524664
1896.73161556942
1896.73161492572
1896.73161284365
1896.73160944008
1896.73160561653
1896.73160323178
1896.73161103386
1896.73165414543
1896.73177615218
1896.73207255969
1896.73276183148
1896.73429986559
1896.73760948577
1896.74450661711
1896.75846978379
1896.78603808951
1896.83940274132
1896.9414282984
1897.13582399582
1897.50781328896
1898.22310977399
1899.58912449065
1902.12113476657
1906.53630783112
1913.72802114895
1885.25464156245
1881.48140224343
1879.21553500134
1877.92455145566
1877.23159086338
1876.87131797827
1876.68601449369
1876.5904620123
1876.54093643607
1876.51526966557
1876.50207664993
1876.49540281814
1876.49210124514
1876.49051188682
1876.48977105412
1876.48943900579
1876.48929767229
1876.48924188136
1876.48922288376
1876.48921893404
1876.48921967313
1876.48922117248
1876.48922258593
1876.4892237308
1876.48922448103
1876.48922478308
1876.48922450965
1876.48922335784
1876.48922142704
1876.48921911489
1876.48921737316
1876.48922008503
1876.48923941569
1876.48929662847
1876.48943713818
1876.48976470702
1876.49049548226
1876.492066747
1876.49533986743
1876.50197022888
1876.51509116616
1876.54061321188
1876.58981481571
1876.68473908611
1876.86943684638
1877.23175239568
1877.93916402399
1879.28247317913
1881.68767902424
1885.73964770858
1871.03232500296
1869.03534962808
1867.86848906685
1867.21805741688
1866.87599588626
1866.70158403891
1866.61351624977
1866.56883596697
1866.5459703416
1866.53422178803
1866.52821220823
1866.52517810072
1866.52367703504
1866.52295359006
1866.52261591903
1866.52246451824
1866.52240026555
1866.5223751945
1866.52236716236
1866.52236592875
1866.52236658463
1866.5223675648
1866.52236846219
1866.52236918406
1866.52236963983
1866.52236984923
1866.522369733
1866.52236912618
1866.52236809378
1866.52236680246
1866.52236571445
1866.52236651448
1866.52237483436
1866.52240058902
1866.52246456078
1866.5226140114
1866.52294711416
1866.52366217661
1866.52514981751
1866.52816245275
1866.53413292564
1866.54579428703
1866.56845004508
1866.61269095094
1866.70018924646
1866.87521761163
1867.22439860336
1867.90307034807
1869.14898362863
1871.31276829567
1864.04327092132
1863.03716672951
1862.46341462423
1862.15002562789
1861.98837273962
1861.90747265256
1861.86734945778
1861.84731755408
1861.83719506842
1861.83203828679
1861.82941279062
1861.82808939151
1861.82743438977
1861.8271182308
1861.82697041998
1861.82690411287
1861.82687606013
1861.82686525617
1861.82686204118
1861.82686174531
1861.82686216541
1861.82686273698
1861.82686324934
1861.82686365818
1861.82686391141
1861.82686403445
1861.82686398446
1861.82686368018
1861.82686315681
1861.82686248276
1861.82686189237
1861.82686207754
1861.8268655089
1861.82687666769
1861.82690473902
1861.82697043058
1861.82711662055
1861.82742970675
1861.82807969217
1861.82939448146
1861.8320018155
1861.83711175958
1861.84711110796
1861.86686680693
1861.90656830026
1861.98751665116
1862.1524255193
1862.48019813249
1863.09630197874
1864.19625553414
1860.74828802503
1860.26392937916
1859.99362835721
1859.84874151357
1859.77535730386
1859.73928188664
1859.72169904244
1859.71305859539
1859.70874729047
1859.70656957177
1859.70546582235
1859.70491022884
1859.70463504022
1859.7045019693
1859.70443963873
1859.70441165997
1859.70439986134
1859.70439539145
1859.70439415232
1859.7043941183
1859.70439436833
1859.70439467452
1859.70439494433
1859.70439515787
1859.70439528859
1859.7043953535
1859.70439533179
1859.70439518601
1859.7043949333
1859.70439460116
1859.70439429716
1859.70439431231
1859.70439568827
1859.7044003628
1859.7044122724
1859.70444017821
1859.70450214945
1859.70463447121
1859.70490839341
1859.70546140316
1859.7065578928
1859.70871262679
1859.71295718858
1859.72143824506
1859.7387500163
1859.77471128492
1859.84947591521
1860.00130696953
1860.29313930499
1860.82744169515
1859.2541330741
1859.03057884676
1858.90820064072
1858.84373603235
1858.81164078395
1858.79612948466
1858.78869592313
1858.78509950663
1858.78332751604
1858.7824400399
1858.78199221437
1858.78176704923
1858.78165540927
1858.78160131124
1858.78157591826
1858.78156451115
1858.78155971655
1858.78155793315
1858.78155747249
1858.78155749374
1858.78155762797
1858.78155778068
1858.78155791344
1858.7815580177
1858.78155808095
1858.78155811252
1858.7815581031
1858.7815580362
1858.78155791964
1858.7815577644
1858.78155761731
1858.78155760117
1858.7815581387
1858.78156003886
1858.78156493831
1858.78157642691
1858.78160187371
1858.78165601339
1858.78176769136
1858.78199254259
1858.78243795302
1858.78331497162
1858.78505309426
1858.78856385792
1858.79583986984
1858.81123087281
1858.84386540821
1858.91151977848
1859.04432981533
1859.29315088114
1858.60089804788
1858.50168666428
1858.44829717719
1858.42062172796
1858.40706275929
1858.40061519975
1858.39757521036
1858.39612678316
1858.39542204301
1858.39507207729
1858.39489624449
1858.39480791896
1858.3947640694
1858.39474277072
1858.3947327498
1858.3947282436
1858.39472635524
1858.39472566524
1858.39472549922
1858.39472552087
1858.3947255867
1858.39472565802
1858.3947257194
1858.39472576725
1858.39472579604
1858.39472581037
1858.39472580632
1858.39472577691
1858.39472572552
1858.39472565657
1858.39472558974
1858.394725576
1858.3947257818
1858.39472653427
1858.39472849409
1858.39473308968
1858.39474323722
1858.39476473805
1858.39480890433
1858.39489752443
1858.39507277664
1858.39541828515
1858.39610677751
1858.39751189797
1858.40046725083
1858.4068298665
1858.42058014431
1858.449654116
1858.50787811143
1858.61929263454
1858.32496017701
1858.2825143494
1858.26001677423
1858.24852587131
1858.24298012547
1858.24038319837
1858.23917777269
1858.23861196665
1858.23834008379
1858.2382062131
1858.2381392369
1858.23810561761
1858.238088901
1858.2380807596
1858.23807691864
1858.23807518872
1858.23807446515
1858.23807420445
1858.23807414546
1858.23807415803
1858.23807418758
1858.23807421865
1858.23807424522
1858.2380742658
1858.23807427808
1858.23807428414
1858.23807428243
1858.23807427009
1858.23807424852
1858.23807421952
1858.23807419113
1858.23807418399
1858.2380742621
1858.23807455383
1858.23807531844
1858.23807710916
1858.23808104845
1858.23808935628
1858.23810634072
1858.23814028111
1858.23820723836
1858.23833931458
1858.23860377173
1858.23914881407
1858.24031163178
1858.24285815419
1858.24846342005
1858.26054120513
1858.28518890263
1858.33328161658
1858.21211579571
1858.19456818615
1858.18539190881
1858.18076816381
1858.17856763239
1858.17755200403
1858.17708757937
1858.17687273425
1858.17677076015
1858.17672097216
1858.17669616527
1858.1766837193
1858.17667751876
1858.1766744893
1858.17667305502
1858.17667240709
1858.17667213574
1858.1766720383
1858.17667201662
1858.17667202191
1858.17667203372
1858.17667204603
1858.17667205654
1858.17667206465
1858.17667206942
1858.17667207175
1858.17667207104
1858.17667206617
1858.1766720577
1858.17667204636
1858.17667203535
1858.17667203283
1858.17667206294
1858.17667217463
1858.1766724669
1858.17667314877
1858.17667464128
1858.17667777188
1858.1766841374
1858.17669679735
1858.1767216944
1858.17677079475
1858.17686951569
1858.17707486222
1858.17751899463
1858.17850777148
1858.18072300809
1858.18558302928
1858.1956796469
1858.21573869342
1858.16735846367
1858.16033382009
1858.15670408407
1858.15489770003
1858.15404907425
1858.15366269595
1858.15348851156
1858.15340905722
1858.15337179748
1858.15335375616
1858.15334480197
1858.15334030982
1858.15333806596
1858.15333696492
1858.15333644075
1858.1533362023
1858.15333610145
1858.15333606437
1858.1533360552
1858.15333605626
1858.15333605993
1858.15333606394
1858.1533360674
1858.15333607007
1858.1533360716
1858.15333607232
1858.15333607203
1858.15333607031
1858.15333606737
1858.15333606353
1858.15333606
1858.15333605998
1858.1533360724
1858.1533361154
1858.15333622589
1858.15333648099
1858.1533370349
1858.15333818858
1858.15334051923
1858.15334512858
1858.15335415757
1858.15337194601
1858.15340783255
1858.15348312044
1858.15364809846
1858.15402125047
1858.15487155511
1858.1567693787
1858.16077923963
1858.16888035871
1858.15011239912
1858.14738417202
1858.14598940279
1858.14530311137
1858.14498453103
1858.14484131482
1858.14477761391
1858.14474894477
1858.14473565644
1858.14472927312
1858.14472611555
1858.14472453003
1858.14472373464
1858.14472334149
1858.14472315225
1858.1447230646
1858.14472302627
1858.14472301102
1858.14472300597
1858.14472300482
1858.14472300496
1858.14472300547
1858.14472300596
1858.14472300635
1858.14472300655
1858.14472300662
1858.14472300648
1858.14472300605
1858.14472300537
1858.14472300458
1858.14472300414
1858.14472300533
1858.14472301133
1858.1447230287
1858.14472307094
1858.14472316587
1858.1447233687
1858.14472378641
1858.14472462284
1858.14472626525
1858.14472946599
1858.14473575913
1858.14474848648
1858.14477539612
1858.144835097
1858.14497219074
1858.14528970302
1858.14601006698
1858.1475566803
1858.1507306778
1858.14364653348
1858.14261677433
1858.14209533285
1858.14184141137
1858.14172483013
1858.14167303642
1858.14165028696
1858.14164017696
1858.14163554178
1858.14163333076
1858.14163223906
1858.14163168894
1858.1416314105
1858.14163127072
1858.14163120166
1858.14163116817
1858.14163115219
1858.14163114459
1858.14163114085
1858.14163113879
1858.14163113746
1858.14163113652
1858.14163113582
1858.14163113531
1858.14163113495
1858.14163113475
1858.14163113469
1858.14163113477
1858.14163113498
1858.1416311354
1858.14163113621
1858.14163113789
1858.14163114158
1858.14163114961
1858.14163116683
1858.14163120305
1858.14163127765
1858.14163142783
1858.14163172401
1858.14163229928
1858.14163341192
1858.14163559127
1858.14164000377
1858.14164939598
1858.14167047419
1858.14171957762
1858.14183507795
1858.14210124033
1858.1426814663
1858.14388995065
1858.14128446584
1858.1409061395
1858.14071623319
1858.14062464098
1858.14058301205
1858.14056471626
1858.14055677162
1858.14055328075
1858.14055169496
1858.14055094187
1858.14055056908
1858.14055037913
1858.14055028088
1858.14055022968
1858.14055020274
1858.14055018825
1858.14055018008
1858.14055017511
1858.14055017179
1858.14055016935
1858.14055016745
1858.14055016594
1858.14055016477
1858.14055016391
1858.14055016333
1858.14055016303
1858.14055016302
1858.14055016329
1858.14055016385
1858.14055016473
1858.14055016601
1858.14055016788
1858.14055017076
1858.14055017547
1858.14055018371
1858.14055019889
1858.14055022768
1858.14055028278
1858.14055038798
1858.14055058808
1858.14055096979
1858.14055171162
1858.14055321114
1858.14055641834
1858.14056368944
1858.14058085575
1858.14062183021
1858.1407176672
1858.14092967042
1858.14137751068
1858.14044256919
1858.14030708963
1858.1402396553
1858.14020743049
1858.14019292017
1858.14018660359
1858.14018388697
1858.14018270346
1858.14018216838
1858.14018191348
1858.14018178535
1858.14018171795
1858.14018168114
1858.14018166023
1858.14018164775
1858.14018163979
1858.1401816343
1858.14018163023
1858.14018162704
1858.14018162445
1858.14018162233
1858.14018162062
1858.14018161928
1858.14018161828
1858.14018161763
1858.1401816173
1858.14018161731
1858.14018161765
1858.14018161833
1858.14018161939
1858.14018162084
1858.14018162279
1858.14018162537
1858.14018162891
1858.14018163399
1858.1401816418
1858.14018165457
1858.14018167658
1858.14018171571
1858.14018178671
1858.1401819181
1858.14018216872
1858.14018267099
1858.14018374562
1858.14018619991
1858.14019206175
1858.14020624411
1858.14023989151
1858.1403154044
1858.14047715783
1858.14014944238
1858.14010209985
1858.14007875543
1858.14006770986
1858.14006277971
1858.14006064955
1858.14005973853
1858.14005934218
1858.14005916154
1858.14005907332
1858.14005902673
1858.14005900017
1858.14005898387
1858.14005897313
1858.14005896552
1858.14005895977
1858.1400589552
1858.14005895144
1858.1400589483
1858.14005894566
1858.14005894347
1858.14005894169
1858.14005894029
1858.14005893926
1858.14005893857
1858.14005893824
1858.14005893826
1858.14005893862
1858.14005893935
1858.14005894046
1858.14005894198
1858.14005894395
1858.14005894643
1858.14005894956
1858.14005895354
1858.1400589588
1858.14005896608
1858.1400589768
1858.14005899352
1858.14005902101
1858.14005906843
1858.14005915474
1858.14005932298
1858.14005967866
1858.14006049098
1858.14006244559
1858.14006722934
1858.14007873686
1858.14010495814
1858.14016196572
1858.14004963274
1858.14003347877
1858.14002562315
1858.14002195702
1858.14002033517
1858.14001963634
1858.14001933584
1858.14001920253
1858.14001913904
1858.14001910548
1858.14001908552
1858.1400190723
1858.14001906275
1858.14001905536
1858.14001904937
1858.14001904437
1858.14001904012
1858.14001903648
1858.14001903337
1858.14001903074
1858.14001902853
1858.14001902674
1858.14001902533
1858.14001902428
1858.1400190236
1858.14001902327
1858.14001902329
1858.14001902366
1858.14001902441
1858.14001902554
1858.14001902707
1858.14001902903
1858.14001903147
1858.14001903445
1858.14001903805
1858.14001904243
1858.14001904786
1858.14001905479
1858.14001906406
1858.14001907716
1858.14001909698
1858.14001912945
1858.14001918815
1858.14001930664
1858.14001957148
1858.1400202059
1858.14002176862
1858.14002558125
1858.14003443601
1858.14005405454
1858.14001636229
1858.14001098374
1858.14000844428
1858.14000729208
1858.14000678806
1858.14000656834
1858.14000647004
1858.14000642285
1858.14000639729
1858.14000638127
1858.14000636984
1858.1400063609
1858.14000635352
1858.14000634724
1858.1400063418
1858.14000633707
1858.14000633295
1858.14000632937
1858.1400063263
1858.14000632368
1858.14000632149
1858.1400063197
1858.1400063183
1858.14000631727
1858.14000631658
1858.14000631626
1858.14000631628
1858.14000631666
1858.14000631741
1858.14000631854
1858.14000632006
1858.14000632202
1858.14000632443
1858.14000632734
1858.14000633079
1858.14000633487
1858.14000633966
1858.14000634534
1858.14000635217
1858.14000636061
1858.14000637154
1858.14000638675
1858.1400064103
1858.14000645221
1858.14000653843
1858.14000673647
1858.14000721971
1858.14000841848
1858.14001129665
1858.14001788618
1858.14000549534
1858.14000375612
1858.14000300122
1858.14000268703
1858.1400025527
1858.14000248998
1858.1400024572
1858.14000243755
1858.14000242397
1858.14000241343
1858.14000240465
1858.14000239706
1858.14000239038
1858.14000238447
1858.14000237924
1858.14000237463
1858.14000237058
1858.14000236706
1858.14000236402
1858.14000236143
1858.14000235927
1858.14000235751
1858.14000235612
1858.1400023551
1858.14000235443
1858.14000235411
1858.14000235414
1858.14000235452
1858.14000235526
1858.14000235638
1858.1400023579
1858.14000235983
1858.14000236221
1858.14000236508
1858.14000236846
1858.14000237241
1858.14000237698
1858.14000238224
1858.14000238828
1858.14000239525
1858.1400024034
1858.14000241323
1858.14000242579
1858.1400024436
1858.14000247288
1858.14000252984
1858.14000265916
1858.14000298944
1858.14000385635
1858.14000600797
1858.14000201524
1858.14000147902
1858.14000131047
1858.14000126959
1858.14000125479
1858.14000124224
1858.14000123008
1858.14000121893
1858.14000120896
1858.14000120004
1858.14000119205
1858.14000118486
1858.14000117841
1858.14000117264
1858.14000116751
1858.14000116298
1858.14000115899
1858.14000115553
1858.14000115253
1858.14000114999
1858.14000114786
1858.14000114613
1858.14000114477
1858.14000114376
1858.14000114311
1858.1400011428
1858.14000114283
1858.14000114321
1858.14000114394
1858.14000114505
1858.14000114654
1858.14000114845
1858.1400011508
1858.14000115363
1858.14000115696
1858.14000116085
1858.14000116532
1858.14000117042
1858.1400011762
1858.14000118273
1858.14000119006
1858.14000119831
1858.14000120762
1858.14000121813
1858.14000122984
1858.14000124238
1858.14000125835
1858.14000130636
1858.1400015109
1858.14000218322
1858.14000092282
1858.14000077625
1858.14000079621
1858.14000084229
1858.14000086495
1858.14000086778
1858.14000086173
1858.14000085296
1858.14000084393
1858.14000083541
1858.1400008276
1858.14000082053
1858.14000081417
1858.14000080848
1858.14000080342
1858.14000079895
1858.14000079504
1858.14000079163
1858.14000078869
1858.1400007862
1858.14000078411
1858.14000078241
1858.14000078108
1858.1400007801
1858.14000077947
1858.14000077916
1858.1400007792
1858.14000077957
1858.1400007803
1858.14000078139
1858.14000078286
1858.14000078474
1858.14000078705
1858.14000078983
1858.14000079312
1858.14000079694
1858.14000080135
1858.14000080639
1858.14000081209
1858.14000081849
1858.14000082562
1858.1400008335
1858.14000084199
1858.14000085054
1858.14000085719
1858.14000085638
1858.14000083719
1858.14000079571
1858.14000078679
1858.14000097599
1858.14000058792
1858.14000056518
1858.14000064421
1858.14000071686
1858.1400007505
1858.14000075753
1858.14000075292
1858.14000074458
1858.14000073564
1858.14000072712
1858.14000071932
1858.14000071227
1858.14000070595
1858.14000070033
1858.14000069534
1858.14000069095
1858.1400006871
1858.14000068376
1858.14000068089
1858.14000067845
1858.14000067642
1858.14000067476
1858.14000067347
1858.14000067252
1858.1400006719
1858.14000067161
1858.14000067164
1858.14000067201
1858.14000067273
1858.14000067379
1858.14000067524
1858.14000067708
1858.14000067935
1858.14000068208
1858.14000068531
1858.14000068908
1858.14000069344
1858.14000069842
1858.14000070408
1858.14000071047
1858.1400007176
1858.14000072549
1858.14000073393
1858.1400007422
1858.14000074776
1858.14000074344
1858.1400007141
1858.14000064536
1858.14000056932
1858.14000060375
1858.14000048943
1858.14000050535
1858.14000060206
1858.14000068196
1858.14000071809
1858.1400007257
1858.14000072102
1858.14000071247
1858.14000070333
1858.14000069469
1858.14000068683
1858.14000067978
1858.14000067351
1858.14000066794
1858.14000066303
1858.14000065873
1858.14000065496
1858.14000065171
1858.14000064891
1858.14000064654
1858.14000064456
1858.14000064295
1858.1400006417
1858.14000064077
1858.14000064018
1858.1400006399
1858.14000063994
1858.1400006403
1858.140000641
1858.14000064204
1858.14000064345
1858.14000064525
1858.14000064747
1858.14000065014
1858.14000065331
1858.14000065702
1858.14000066132
1858.14000066625
1858.14000067189
1858.14000067828
1858.14000068548
1858.1400006935
1858.14000070216
1858.14000071069
1858.14000071643
1858.14000071176
1858.14000068021
1858.14000060401
1858.14000050774
1858.14000049345
1858.1400004639
1858.14000049171
1858.14000059298
1858.14000067391
1858.14000070972
1858.14000071668
1858.14000071141
1858.1400007024
1858.14000069297
1858.14000068416
1858.14000067623
1858.14000066919
1858.14000066296
1858.14000065747
1858.14000065265
1858.14000064844
1858.14000064477
1858.1400006416
1858.14000063889
1858.14000063659
1858.14000063468
1858.14000063313
1858.14000063192
1858.14000063103
1858.14000063045
1858.14000063019
1858.14000063023
1858.14000063059
1858.14000063127
1858.14000063228
1858.14000063365
1858.1400006354
1858.14000063756
1858.14000064017
1858.14000064327
1858.1400006469
1858.14000065113
1858.14000065601
1858.14000066162
1858.14000066802
1858.1400006753
1858.14000068349
1858.14000069246
1858.14000070145
1858.14000070784
1858.14000070388
1858.14000067273
1858.14000059542
1858.14000049375
1858.14000046436
1858.1400004611
1858.1400004925
1858.14000059407
1858.14000067387
1858.14000070831
1858.14000071413
1858.14000070803
1858.14000069846
1858.14000068869
1858.1400006797
1858.14000067171
1858.14000066468
1858.14000065851
1858.14000065311
1858.1400006484
1858.14000064429
1858.14000064074
1858.14000063767
1858.14000063505
1858.14000063283
1858.14000063099
1858.1400006295
1858.14000062834
1858.14000062749
1858.14000062694
1858.14000062669
1858.14000062674
1858.14000062708
1858.14000062774
1858.14000062873
1858.14000063005
1858.14000063175
1858.14000063384
1858.14000063638
1858.14000063939
1858.14000064294
1858.14000064709
1858.1400006519
1858.14000065747
1858.14000066387
1858.14000067123
1858.1400006796
1858.14000068891
1858.14000069846
1858.14000070568
1858.14000070289
1858.14000067311
1858.14000059688
1858.14000049461
1858.14000046062
1858.140000466
1858.14000049838
1858.14000059867
1858.14000067637
1858.1400007089
1858.14000071328
1858.14000070621
1858.14000069604
1858.14000068591
1858.14000067675
1858.14000066872
1858.14000066172
1858.14000065563
1858.14000065034
1858.14000064575
1858.14000064177
1858.14000063833
1858.14000063538
1858.14000063286
1858.14000063074
1858.14000062898
1858.14000062755
1858.14000062644
1858.14000062563
1858.14000062511
1858.14000062488
1858.14000062492
1858.14000062526
1858.1400006259
1858.14000062685
1858.14000062813
1858.14000062976
1858.14000063178
1858.14000063423
1858.14000063716
1858.14000064061
1858.14000064466
1858.14000064938