/*--------------------------------*- C++ -*----------------------------------*\
  =========                 |
  \\      /  F ield         | OpenFOAM: The Open Source CFD Toolbox
   \\    /   O peration     | Website:  https://openfoam.org
    \\  /    A nd           | Version:  10
     \\/     M anipulation  |
\*---------------------------------------------------------------------------*/
FoamFile
{
    format      ascii;
    class       volScalarField;
    location    "8.4";
    object      k;
}
// * * * * * * * * * * * * * * * * * * * * * * * * * * * * * * * * * * * * * //

dimensions      [0 2 -2 0 0 0 0];

internalField   nonuniform List<scalar> 
2500
(
6.500792320517e-10
1.28035150927653e-08
5.49064031517264e-08
9.58373501265991e-08
1.32025499633402e-07
1.62182332080111e-07
1.85930350979585e-07
2.03619974619164e-07
2.16097367939397e-07
2.24441516344604e-07
2.29739309027799e-07
2.32937548986088e-07
2.34776240079093e-07
2.35784519778375e-07
2.36312745366105e-07
2.36577532536317e-07
2.36704719558675e-07
2.36763334655718e-07
2.36789274106207e-07
2.36800297723348e-07
2.36804789200566e-07
2.36806534170628e-07
2.36807171029655e-07
2.36807379269301e-07
2.36807425151959e-07
2.36807393515191e-07
2.36807271638287e-07
2.36806944081082e-07
2.3680608333266e-07
2.36803889135211e-07
2.36798490843029e-07
2.36785682488512e-07
2.36756376730774e-07
2.36691745457586e-07
2.36554475685856e-07
2.36274031908581e-07
2.35723675494229e-07
2.34687796675212e-07
2.32820794062462e-07
2.29603912246269e-07
2.24313920684986e-07
2.16025226897214e-07
2.03670518136318e-07
1.86178479453656e-07
1.6268635858263e-07
1.32792331408811e-07
9.67814052452724e-08
5.57981473410355e-08
1.31579413809631e-08
6.78330142833701e-10
1.60654510214162e-08
3.68798071646528e-07
1.61420955295759e-06
2.81906026802958e-06
3.88532223368824e-06
4.77548419814873e-06
5.47811636435755e-06
6.00297736992502e-06
6.37439554337705e-06
6.62368458341139e-06
6.78259254064616e-06
6.87893517126076e-06
6.93457434452926e-06
6.96522973110508e-06
6.9813685672085e-06
6.98949941639636e-06
6.99342511447428e-06
6.99524378019666e-06
6.99605292600775e-06
6.99639870265912e-06
6.99654042263789e-06
6.99659585735507e-06
6.99661627052891e-06
6.99662304298704e-06
6.99662459985374e-06
6.99662364004204e-06
6.996619764166e-06
6.99660932724767e-06
6.996582023579e-06
6.99651278543368e-06
6.9963433110613e-06
6.99594319227315e-06
6.99503214350233e-06
6.9930325079296e-06
6.98880552460503e-06
6.98021017474488e-06
6.9634200331796e-06
6.93196040810669e-06
6.8755085212249e-06
6.7786522677837e-06
6.62001915219128e-06
6.37240382951626e-06
6.00461127404463e-06
5.48552769234939e-06
4.79032092387018e-06
3.90772908719552e-06
2.84650689164255e-06
1.64002970021286e-06
3.78813513905728e-07
1.67384274856075e-08
5.68608548960359e-08
1.65284853892168e-06
8.19344385421953e-06
1.42884662536218e-05
1.96519924574952e-05
2.41161365463287e-05
2.76336686006506e-05
3.02597061823018e-05
3.2118879833329e-05
3.33684072804066e-05
3.41665618457537e-05
3.46517427200263e-05
3.49328015472806e-05
3.5088182226765e-05
3.5170282506974e-05
3.52118042290629e-05
3.5231931884712e-05
3.52412952314885e-05
3.52454790831799e-05
3.5247275120008e-05
3.52480148933265e-05
3.52483059439126e-05
3.52484139519114e-05
3.5248450243514e-05
3.52484589000004e-05
3.52484541222444e-05
3.5248433932453e-05
3.52483794169403e-05
3.52482372269506e-05
3.52478779486849e-05
3.52470015603139e-05
3.52449392198948e-05
3.5240258276147e-05
3.52300162657728e-05
3.52084328023504e-05
3.51646777750245e-05
3.50794625420779e-05
3.49202582877994e-05
3.46353659416587e-05
3.41478070012827e-05
3.33510404897772e-05
3.21095302720702e-05
3.02675828742148e-05
2.76689018905969e-05
2.4186479982533e-05
1.97581000121739e-05
1.44182662041947e-05
8.315123936197e-06
1.69388371588426e-06
5.88922932371512e-08
1.00425460564722e-07
2.93958884453706e-06
1.46302600688056e-05
2.54353352444746e-05
3.48923568678987e-05
4.2730603254919e-05
4.88871776690447e-05
5.34731225095277e-05
5.67152660385171e-05
5.88926791188239e-05
6.0283280447944e-05
6.11287994767113e-05
6.1618871807355e-05
6.18900215301775e-05
6.20334346280817e-05
6.21060484873024e-05
6.21412934417642e-05
6.2157712622788e-05
6.21650607097594e-05
6.21682205659072e-05
6.21695246939646e-05
6.21700390546971e-05
6.21702305994217e-05
6.21702953580592e-05
6.21703111456592e-05
6.21703031707802e-05
6.21702683939583e-05
6.21701740292606e-05
6.21699276346315e-05
6.21693046251195e-05
6.21677838941456e-05
6.21642029216573e-05
6.21560701210126e-05
6.21382655655048e-05
6.21007272091913e-05
6.20245966439095e-05
6.18762773849331e-05
6.1599095561017e-05
6.11029421347073e-05
6.02535538129566e-05
5.8864857990958e-05
5.66995374742477e-05
5.34836496287295e-05
4.89395438972486e-05
4.28367021991027e-05
3.50529985178212e-05
2.56313616821423e-05
1.48119734630601e-05
2.99940903342054e-06
1.03330793387944e-07
1.43272022028168e-07
4.19598394626159e-06
2.0845737857083e-05
3.61370435974523e-05
4.94592331018313e-05
6.04612136687967e-05
6.90793246758469e-05
7.54866126485773e-05
8.00109355591329e-05
8.30475443389073e-05
8.49865404898228e-05
8.61657176506234e-05
8.68494981544824e-05
8.72280799947028e-05
8.74284850942759e-05
8.75300568322792e-05
8.75794130835888e-05
8.76024352704042e-05
8.76127529889063e-05
8.76171969892109e-05
8.76190345923e-05
8.7619761122159e-05
8.7620032630357e-05
8.76201249995463e-05
8.76201479710457e-05
8.76201373819666e-05
8.76200895420004e-05
8.76199589736372e-05
8.76196176609655e-05
8.76187540330338e-05
8.76166444249471e-05
8.761167308009e-05
8.76003744354705e-05
8.75756225104852e-05
8.75234049462145e-05
8.74174469639506e-05
8.72109199804292e-05
8.68247967780815e-05
8.61333675607063e-05
8.49491924600696e-05
8.30121926010373e-05
7.99899450041373e-05
7.54971762969781e-05
6.91403371862314e-05
6.05870201328348e-05
4.96505626782717e-05
3.63701776885548e-05
2.10604181057402e-05
4.26652776542979e-06
1.46727699885499e-07
1.84386175034129e-07
5.40074068583508e-06
2.67645594852444e-05
4.62745320598971e-05
6.32031094219597e-05
7.71390980756622e-05
8.80298397299797e-05
9.61135921650531e-05
0.000101815934213548
0.000105641259852094
0.000108083623740965
0.000109569224177016
0.000110431080393653
0.000110908562085118
0.000111161523046948
0.000111289852256264
0.000111352277318686
0.000111381430447824
0.000111394513537218
0.000111400157410737
0.000111402495552894
0.000111403422261359
0.000111403769849124
0.000111403888879596
0.00011140391904622
0.000111403906403564
0.000111403846914759
0.000111403683554026
0.000111403256120109
0.000111402174018207
0.000111399529185857
0.000111393292558643
0.00011137910904714
0.000111348018088299
0.000111282390456902
0.000111149154262433
0.000110889343325917
0.000110403410080778
0.000109532936073637
0.000108041570049654
0.000105601038667723
0.000101790996420598
9.61226265748226e-05
8.8093339124053e-05
7.72725270684412e-05
6.34070350024167e-05
4.65230021162761e-05
2.69929376926011e-05
5.47659202767912e-06
1.88173647911719e-07
2.2319277908364e-07
6.53828275225197e-06
3.23243397045514e-05
5.57520252872845e-05
7.60065192904501e-05
9.263413895836e-05
0.000105601951099328
0.000115214122122075
0.000121988937591056
0.000126531913998037
0.000129432346083205
0.000131196977237668
0.000132221166129682
0.000132788933686704
0.000133089956251959
0.00013324280394081
0.000133317231521171
0.000133352029831386
0.000133367666650564
0.000133374422391794
0.000133377226362626
0.000133378340472024
0.000133378759936081
0.000133378904570605
0.000133378941914823
0.000133378927739171
0.000133378857901754
0.000133378664979458
0.000133378159850286
0.000133376880662588
0.000133373752771517
0.000133366373160509
0.000133349580815197
0.000133312751021623
0.000133234970330206
0.000133076989581024
0.000132768804014931
0.000132192192254103
0.000131158951845934
0.000129388156658303
0.000126489299722706
0.000121961596031741
0.000115221045718453
0.000105663891837952
9.27666433605484e-05
7.62099606745688e-05
5.60001028452902e-05
3.25527461137437e-05
6.6156418953943e-06
2.27153874672248e-07
2.59279486060432e-07
7.59685320652831e-06
3.74764913309326e-05
6.44975856920696e-05
8.77840990209768e-05
0.000106854493848408
0.000121701469218189
0.000132693701599321
0.000140435881872469
0.000145625984319288
0.000148939592694491
0.000150956102671789
0.00015212699673447
0.000152776478390903
0.000153121075600558
0.000153296197372168
0.000153381553508066
0.00015342150504826
0.000153439479899944
0.000153447257154054
0.000153450490997765
0.000153451779114252
0.000153452265966022
0.000153452435039909
0.000153452479516735
0.000153452464260265
0.000153452385254919
0.000153452165826898
0.000153451591054503
0.000153450135349336
0.000153446574814827
0.00015343817091306
0.000153419038622814
0.000153377056599851
0.00015328835504583
0.000153108120022669
0.000152756396671271
0.00015209812282987
0.000150918223056507
0.000148895528891189
0.000145583292023634
0.000140407894092521
0.000132698830853896
0.000121759723175134
0.000106980713715374
8.79784208798282e-05
6.47347092995107e-05
3.76957009561223e-05
7.67308660764164e-06
2.63298265618927e-07
2.92356491525907e-07
8.56803347242951e-06
4.21869094738693e-05
7.24635661755247e-05
9.84825242734691e-05
0.000119746007273077
0.000136275777229513
0.000148501965663215
0.000157108478023854
0.000162876744464241
0.000166559665903162
0.000168801511063229
0.000170103809310486
0.000170826592517601
0.000171210347214164
0.000171405525365962
0.000171500744246524
0.000171545358342188
0.000171565454833124
0.000171574162325171
0.000171577789402539
0.000171579237709187
0.000171579787218913
0.000171579979433913
0.000171580030939072
0.000171580015017471
0.000171579927913816
0.000171579684862364
0.000171579048102806
0.000171577435522202
0.00017157349066064
0.000171564176583702
0.00017154296362632
0.000171496396530257
0.000171397968350022
0.000171197897852112
0.000170807343775382
0.000170076197515221
0.000168765365661563
0.000166517697965871
0.000162836123368599
0.000157081762405936
0.00014850637715543
0.000136329870095415
0.00011986334162529
9.86629148453771e-05
7.26835365957097e-05
4.23913300890465e-05
8.64142810312724e-06
2.96350815440292e-07
3.22246241621376e-07
9.44659404171069e-06
4.64359919531669e-05
7.9626087256899e-05
0.000108079302380526
0.000131290401570272
0.000149311571777985
0.000162630121935084
0.000172001456405434
0.000178281393461248
0.000182291347783032
0.000184732923137175
0.000186151842103801
0.000186939780236695
0.000187358402513006
0.000187571475786197
0.000187675514548231
0.000187724308857051
0.000187746313113824
0.000187755860040334
0.000187759843591935
0.000187761438053967
0.000187762045308446
0.000187762259221336
0.000187762317590223
0.000187762301377605
0.000187762207154292
0.000187761943191324
0.000187761251681128
0.000187759500834614
0.00018775521752574
0.000187745101885215
0.000187722055599855
0.000187671445650027
0.000187564434856406
0.000187346850109338
0.000186921989598902
0.000186126430976795
0.00018469982354982
0.00018225316266772
0.000178244805787293
0.000171978012014954
0.000162635473162804
0.00014936236086976
0.00013139850780303
0.000108244089203136
7.98262665692007e-05
4.66229725214026e-05
9.51618622084823e-06
3.2616228067277e-07
3.4887677092227e-07
1.02303370333897e-05
5.0217952753038e-05
8.59834840812015e-05
0.000116580375764941
0.000141502204586889
0.000160831307223924
0.000175107073697669
0.000185148487360063
0.000191876853381578
0.000196173625584883
0.00019879055409667
0.000200311996274031
0.000201157303428265
0.000201606682062415
0.000201835572499651
0.00020194742470812
0.000201999931716024
0.000202023635384231
0.000202033932734431
0.000202038236430893
0.000202039963007905
0.000202040622983226
0.000202040857031138
0.000202040922019329
0.000202040905822861
0.000202040805405266
0.000202040523074386
0.000202039783607002
0.000202037911972133
0.000202033333351185
0.000202022518420378
0.000201997872119668
0.000201943731686843
0.000201829221102516
0.000201596322440367
0.000201141449712885
0.000200289517505679
0.000198761550318571
0.000196140629704771
0.000191846044167102
0.000185130299044674
0.000175115401735407
0.000160880629303166
0.000141602464104966
0.000116730318165179
8.61640080634697e-05
5.03871483491829e-05
1.02957666281719e-05
3.52684349599969e-07
3.72272251398892e-07
1.09198389783981e-05
5.35395172126449e-05
9.15538759990307e-05
0.000124016722285015
0.00015042461191526
0.00017088853992642
0.000185994420718815
0.000196616963489782
0.000203734417089375
0.000208280259195281
0.000211049634689813
0.000212660331098213
0.000213555663025399
0.000214031909798507
0.00021427464611229
0.00021439335361438
0.000214449126416172
0.000214474329367687
0.000214485291138835
0.000214489879601859
0.000214491724459944
0.000214492432103492
0.000214492684641501
0.000214492755922703
0.000214492739994103
0.000214492634243421
0.000214492335918043
0.000214491554820885
0.000214489578655746
0.000214484744849739
0.000214473325854578
0.000214447297055134
0.000214390104494227
0.000214269106435708
0.00021402295346617
0.000213542092394784
0.000212641326071779
0.000211025529778374
0.000208253579963605
0.000203710882000858
0.00019660590426028
0.000186007938063308
0.000170938857854128
0.000150519600226151
0.000124154321075818
9.17169027665335e-05
5.36922960433838e-05
1.09812129020109e-05
3.75960340778359e-07
3.92540038419445e-07
1.15180876248727e-05
5.64181368293035e-05
9.63720757939152e-05
0.000130440210502744
0.000158124560466526
0.000179562456286382
0.000195380623201572
0.000206501929001556
0.000213953531059914
0.000218713475253738
0.000221614053406558
0.000223301676874675
0.000224240196035041
0.000224739681792094
0.000224994418626028
0.000225119081455409
0.000225177698656316
0.00022520421132362
0.000225215755590916
0.000225220594865136
0.000225222544577188
0.0002252232948906
0.000225223564229282
0.000225223641412017
0.000225223625945809
0.000225223515654495
0.000225223203533686
0.000225222386647903
0.00022522032092083
0.000225215268842959
0.000225203333412044
0.000225176122458477
0.000225116318852903
0.000224989767813175
0.000224732263769961
0.000224229136013191
0.000223286513860723
0.000221595419328193
0.00021869396490491
0.00021393848860178
0.000206499670606139
0.000195401528083598
0.000179616529653565
0.000158217554265517
0.000130569069588558
9.65210958661887e-05
5.65570351827859e-05
1.15758504091124e-05
3.96112301161669e-07
4.09855019374645e-07
1.20300384299638e-05
5.88798848665313e-05
0.000100486082654054
0.000135919000979931
0.000164687331044594
0.000186951917619756
0.00020337467131228
0.000214919504516944
0.00022265506545232
0.000227597142481622
0.000230609475786337
0.000232362722331322
0.000233338145493854
0.000233857527046007
0.000234122559632253
0.000234252343700385
0.000234313413302786
0.000234341058572327
0.000234353108379442
0.000234358166338383
0.000234360208064475
0.00023436099618292
0.000234361280624353
0.000234361363268722
0.000234361348406684
0.000234361234297253
0.000234360910401918
0.000234360063067477
0.000234357921410131
0.000234352684625102
0.000234340312427246
0.000234312101571661
0.000234250088520598
0.000234118836126979
0.000233851716963519
0.000233329719558691
0.000232351614913761
0.000230596671830924
0.000227585387013908
0.000222649438845244
0.00021492744518625
0.000203404986543314
0.000187012517479624
0.000164781877966502
0.000136043268659494
0.000100625313771031
5.90081235237689e-05
1.20848530177421e-05
4.13325538985224e-07
4.24442512683268e-07
1.24621269039462e-05
6.0957199781658e-05
0.000103953407192303
0.00014053279133586
0.000170211008765836
0.000193169371293137
0.000210099623765007
0.000222000180388375
0.000229974450821365
0.00023506981164527
0.000238176326711083
0.000239984963833333
0.000240991591441251
0.000241527828823624
0.000241801602748924
0.000241935745158655
0.000241998907342729
0.000242027521957123
0.00024204000600015
0.000242045252670787
0.000242047374309581
0.00024204819557191
0.000242048493442199
0.000242048581076267
0.000242048566913858
0.000242048449638369
0.000242048115808204
0.000242047242856376
0.000242045037544113
0.000242039646212233
0.000242026908798303
0.000241997861771126
0.000241934000295424
0.000241798812695562
0.000241523641223297
0.000240985834217221
0.000239977990837043
0.000238169521285304
0.000235066146729902
0.000229978863153137
0.000222019396030032
0.000210141074014037
0.000193239053088896
0.000170310577690717
0.000140656700970922
0.000104087292000685
6.10782758045519e-05
1.25147701815299e-05
4.27831906278154e-07
4.36560988314223e-07
1.2821773239565e-05
6.26866308322326e-05
0.000106837455266058
0.000144368177530752
0.000174801104048
0.000198334951870746
0.000215686354065847
0.000227882327462085
0.000236055037350742
0.000241277980493304
0.000244462998757012
0.000246317881062687
0.000247350608475789
0.000247900972556142
0.000248182088598813
0.000248319900543458
0.000248384829314756
0.000248414264766879
0.00024842711786191
0.000248432525663101
0.000248434715972215
0.000248435565982196
0.000248435875662479
0.000248435967799263
0.00024843595439425
0.000248435834536242
0.000248435492429885
0.00024843459818554
0.000248432340147969
0.000248426821052437
0.000248413781906668
0.000248384043985502
0.000248318654561264
0.000248180212250808
0.000247898377340375
0.000247347481473396
0.000246315008023098
0.000244462194864697
0.000241282515225742
0.000236069821880228
0.000227913549734014
0.000215740287062559
0.0001984158943857
0.000174908825829864
0.000144495698541621
0.000106970272765571
6.28039947519672e-05
1.2873050188991e-05
4.39893085222217e-07
4.46485716518598e-07
1.31169110460963e-05
6.41067164211442e-05
0.000109204160378305
0.000147514359229028
0.00017856558793214
0.000202571044477489
0.000220267789863309
0.000232706220032914
0.000241041977629194
0.00024636988873901
0.00024961959416229
0.000251512648186308
0.00025256695972821
0.000253129030596343
0.000253416244816276
0.000253557112130869
0.000253623515852125
0.000253653638769921
0.000253666802097404
0.000253672345984652
0.000253674594663306
0.000253675469336388
0.000253675789288447
0.000253675885440573
0.000253675872820296
0.000253675750896879
0.000253675401994446
0.00025367449028825
0.000253672189149851
0.00025366656580473
0.000253653280597032
0.00025362297915174
0.000253556342819692
0.000253415242794986
0.000253127963390201
0.000252566367324614
0.000251513749983189
0.000249624658164765
0.000246382536887704
0.000241067203111821
0.00023274984154883
0.000220335142300131
0.000202664956090953
0.000178684088164423
0.000147648960184676
0.000109339753393092
6.42235386445775e-05
1.31675897841799e-05
4.49784927154818e-07
4.54494179824831e-07
1.33555644016807e-05
6.52560922707337e-05
0.000111119003780344
0.000150059355458629
0.000181610526678802
0.000205997508902135
0.000223973853851288
0.000236608786512637
0.000245076853340677
0.000250490066627437
0.000253792425930261
0.000255716607209705
0.000256788554622713
0.000257360211562796
0.000257652431025905
0.000257795812562244
0.000257863433442217
0.000257894125492849
0.000257907546628919
0.000257913204148596
0.000257915501884061
0.000257916397480101
0.000257916726267211
0.000257916825960098
0.000257916814128715
0.000257916690593831
0.000257916336203166
0.000257915410394392
0.000257913074543937
0.000257907367376678
0.000257893884399031
0.000257863129868997
0.00025779549031609
0.000257652250326297
0.000257360583802253
0.000256790359957711
0.00025572149134328
0.000253803118791409
0.000250510584220929
0.000245112362729742
0.00023666489088495
0.0002240551588149
0.000206105596851989
0.000181741844926138
0.000150203872778559
0.000111260616496934
6.53751158178367e-05
1.34063324331029e-05
4.57783604184336e-07
4.60853779544332e-07
1.35454889372676e-05
6.61718912467499e-05
0.000112644508662762
0.000152086832451061
0.000184036428375991
0.000208727685275509
0.000226927233149064
0.000239719219187004
0.000248293180351708
0.000253774773639515
0.0002571194159298
0.000259068642172274
0.000260154809540357
0.000260734213640834
0.000261030488292408
0.000261175912356502
0.000261244525000189
0.000261275682355232
0.000261289315105139
0.000261295066362299
0.000261297404838954
0.000261298317979728
0.000261298654281242
0.000261298757063402
0.000261298746007959
0.000261298621256351
0.000261298262522496
0.000261297325531396
0.000261294962217189
0.000261289188816345
0.000261275549577754
0.000261244436819544
0.000261176003294299
0.000261031067892096
0.00026073592213375
0.000260158849891372
0.000259077071944814
0.000257135425734981
0.000253802800953274
0.000248338639863959
0.000239787631376028
0.000227022662520557
0.000208850678882892
0.000184182012224629
0.000152243431184306
0.000112794720998912
6.62953618195333e-05
1.35969291137252e-05
4.64154031373269e-07
4.65812061462907e-07
1.3693883983765e-05
6.68884607198571e-05
0.0001138382413104
0.000153673580069388
0.000185935340450868
0.000210865222386967
0.000229240020153017
0.000242155487669726
0.000250812838052776
0.000256348374091366
0.000259726437364068
0.000261695501948432
0.00026279295939147
0.000263378529991077
0.000263678041275689
0.000263825100411861
0.000263894509560774
0.000263926041979316
0.000263939846036269
0.000263945673584667
0.000263948045460134
0.000263948973132491
0.000263949315752713
0.000263949421203807
0.000263949410899974
0.000263949285272372
0.000263948923190732
0.000263947977539779
0.000263945592987009
0.000263939768403898
0.000263926008354326
0.00026389461829049
0.000263825569192949
0.00026367931724155
0.000263381465735654
0.000262799060610341
0.000261707218779214
0.000259747411740389
0.000256383479695634
0.000250867792777385
0.00024223583867769
0.000229349453148335
0.000211003437937537
0.000186096098473521
0.0001538437881861
0.000113998981575225
6.70181203801006e-05
1.37464671772189e-05
4.69140721611267e-07
4.69589422531806e-07
1.38071753349018e-05
6.74363928434235e-05
0.000114751306710135
0.000154887617468938
0.000187388673829813
0.000212501701257078
0.000231011195660228
0.00024402172588628
0.000252743392326282
0.000258320618816217
0.000261724570747683
0.000263709040805148
0.000264815289274028
0.000265405675468772
0.000265707722312106
0.000265856066730594
0.000265926104330281
0.000265957933918587
0.000265971874371372
0.000265977763034891
0.00026598016188466
0.000265981101429643
0.000265981449300151
0.000265981557035853
0.000265981547452152
0.00026598142124117
0.000265981056673351
0.000265980104535803
0.000265977704080849
0.000265971841172876
0.000265957990526058
0.00026592639202187
0.000265856879006113
0.000265709632292124
0.000265409731509877
0.000264823278862264
0.000263723784879346
0.000261750147727466
0.000258362343132348
0.000252807324109362
0.000244113525026525
0.000231134303377817
0.000212655134341329
0.000187565069068478
0.000155072412110081
0.00011492392075279
6.75735206252674e-05
1.38612658484594e-05
4.72960991007048e-07
4.72374050723399e-07
1.38908621236729e-05
6.7841838005903e-05
0.000115427288659851
0.000155786862481264
0.000188465677021916
0.000213714969535634
0.000232324864754021
0.00024540639986502
0.000254176217468009
0.000259784737125202
0.000263208176970757
0.000265204279971866
0.000266317189318419
0.00026691123768491
0.000267215220427814
0.000267364550364668
0.000267435072095256
0.000267467131805345
0.000267481178522675
0.000267487115159471
0.000267489535395444
0.000267490484485639
0.000267490836662331
0.000267490946336862
0.000267490937438849
0.000267490810895482
0.000267490444587977
0.000267489487842322
0.000267487076080646
0.000267481185884332
0.000267467270509867
0.000267435522410265
0.000267365674845892
0.00026721770746929
0.000266916315861636
0.000266326907811741
0.000265221808539167
0.000263238012966631
0.00025983263305651
0.000254248600873906
0.000245509107804026
0.000232461200414332
0.000213883400280151
0.000188657842026137
0.000155986785856769
0.000115612642770575
6.79873196742756e-05
1.39467313941359e-05
4.75800241717175e-07
4.7431871705383e-07
1.39494174182819e-05
6.81260556841175e-05
0.000115901560518582
0.000156418269593682
0.000189222449568667
0.000214568065340658
0.00023324911673444
0.000246381122827585
0.000255185280541508
0.000260816200705953
0.000264253648068609
0.000266258150266663
0.000267375892460779
0.000267972611999743
0.000268278014801138
0.00026842807206603
0.00026849895345664
0.000268531185378133
0.00026854531229279
0.000268551285511389
0.000268553722277476
0.000268554678882758
0.000268555034537083
0.000268555145843083
0.000268555137595886
0.000268555010936675
0.0002685546435413
0.000268553683829764
0.000268551264772232
0.000268545356895602
0.000268531399254884
0.000268499552521731
0.000268429482180388
0.000268281030434978
0.000267978628451814
0.000267387202834542
0.000266278252987235
0.000264287441766635
0.000260869869126723
0.000255265632994981
0.000246494219013339
0.000233398201850094
0.000214751162677746
0.000189430304899969
0.000156633553183877
0.000116100156193771
6.82804653390953e-05
1.40072615589562e-05
4.77808934329781e-07
4.7553897272502e-07
1.39862301322107e-05
6.83051483327362e-05
0.000116200880038278
0.000156817325728562
0.000189701366399875
0.000215108589550535
0.000233835359517843
0.000246999962321149
0.000255826429289138
0.000261471998358417
0.000264918673320122
0.000266928752675982
0.00026804973165547
0.000268648256765158
0.000268954628897545
0.000269105187822925
0.000269176320054088
0.000269208673548711
0.000269222857864164
0.000269228857702395
0.000269231306751842
0.000269232269096543
0.000269232627502737
0.000269232740168972
0.000269232732539779
0.000269232605954377
0.000269232238050494
0.000269231276840792
0.000269228854075445
0.000269222937101105
0.000269208957205969
0.000269177057106906
0.0002691068629668
0.000268958135480467
0.000268655146142117
0.000268062526577302
0.000266951263584776
0.000264956184562993
0.000261531116670729
0.000255914352125047
0.000247123001322652
0.000233996757520477
0.000215306002403544
0.00018992472669007
0.000157048003949535
0.000116412961202382
6.84688263266919e-05
1.40461872131243e-05
4.79100809816982e-07
4.76112307826371e-07
1.40035758899356e-05
6.8389924234193e-05
0.000116343182545914
0.000157007792544144
0.00018993078116035
0.000215368380961241
0.00023411797438057
0.000247299080088667
0.000256137021296746
0.000261790257637892
0.000265241856095204
0.000267254972071204
0.00026837775173139
0.000268977304159339
0.000269284240805564
0.000269435099003278
0.000269506384682653
0.000269538814571276
0.000269553036051361
0.000269559053741348
0.000269561511391232
0.00026956247797213
0.000269562838536548
0.000269562952348636
0.000269562945311417
0.000269562818952888
0.000269562451031467
0.000269561489619233
0.000269559066391936
0.000269553148176386
0.000269539164422458
0.000269507252576288
0.000269437025476818
0.000269288213224871
0.000268985022648152
0.000268391958764295
0.000267279778186669
0.000265282919561962
0.000261854600834948
0.000256232230215528
0.00024743173389957
0.000234291346672342
0.000215579808530037
0.000190169437412719
0.000157253790832004
0.000116568819123901
6.85630384981265e-05
1.40657394488922e-05
4.79751937877655e-07
4.76077804527162e-07
1.4002603191978e-05
6.8385833695762e-05
0.000116337493264414
0.000157001606377019
0.000189924917857024
0.000215363398406383
0.000234114187805381
0.000247296594307814
0.000256135778055088
0.000261790092284652
0.00026524255378511
0.000267256313327421
0.000268379543167703
0.000268979392383041
0.000269286514360864
0.000269437482738821
0.000269508831150786
0.000269541295514115
0.000269555535480453
0.00026956156299055
0.000269564025906371
0.000269564995386698
0.000269565357594266
0.000269565472370143
0.000269565465903025
0.000269565339906736
0.000269564972419902
0.000269564012033455
0.000269561591468641
0.000269555679619501
0.000269541709835159
0.00026950982650983
0.000269439654093868
0.000269290940732876
0.000268987919013623
0.000268395127072036
0.000267283358487316
0.000265287084681929
0.000261859539331265
0.000256238113413203
0.000247438668000002
0.000234299316102792
0.000215588620436264
0.000190178676693984
0.000157262789310096
0.000116576633549081
6.85684226968781e-05
1.40670320302012e-05
4.79800238509073e-07
4.7543622588599e-07
1.39833346283801e-05
6.82929684132261e-05
0.00011618391752655
0.000156798856409722
0.000189683838900177
0.000215093680153245
0.000233824023980137
0.00024699252667006
0.000255822727983498
0.000261471542769746
0.000264920820265439
0.000266932843128229
0.00026805518269684
0.000268654605458286
0.000268961538454424
0.000269112430943274
0.000269183753129407
0.000269216211009218
0.000269230451279183
0.000269236480818226
0.000269238945774181
0.000269239916861661
0.000269240280212575
0.000269240395774107
0.000269240389856756
0.000269240264363792
0.000269239897782976
0.000269238939700163
0.00026923652503611
0.000269230627404912
0.000269216689913342
0.000269184876329031
0.00026911484797404
0.000268966420137629
0.000268663942153424
0.000268072145539115
0.000266962128235543
0.000264968815509308
0.000261546080083413
0.000255932159366713
0.000247143963935353
0.000234020816821986
0.000215332564210299
0.000189952529888616
0.000157075033574419
0.000116436388903811
6.84849358237748e-05
1.4050048955181e-05
4.79245003815051e-07
4.74150339283512e-07
1.39446752116419e-05
6.81060851190487e-05
0.000115873662874329
0.000156387801231387
0.000189193455790597
0.000214543350307157
0.000233230307792398
0.000246368802561256
0.000255179204356752
0.000260815572494338
0.000264257401515172
0.000266265183728962
0.000267385226538435
0.000267983466212892
0.000268289819918533
0.000268440443191173
0.00026851164707289
0.000268544056237355
0.000268558278130817
0.000268564301717391
0.000268566765412465
0.000268567736781572
0.000268568100759252
0.000268568216921512
0.000268568211537568
0.000268568086709802
0.000268567721561189
0.000268566767188962
0.000268564361958428
0.000268558487057415
0.000268544601633673
0.000268512902118323
0.000268443113653988
0.000268295170929732
0.000267993636659326
0.000267403605636169
0.000266296763201085
0.000264308933663709
0.000260895287367266
0.000255295820453852
0.000246529670758833
0.000233438779848102
0.000214795824814492
0.000189476897965041
0.00015667868720515
0.000116139128137559
6.83071616054779e-05
1.4013644631335e-05
4.7804711077199e-07
4.72144954517355e-07
1.38844152323891e-05
6.78146319872893e-05
0.000115389087514114