/*--------------------------------*- C++ -*----------------------------------*\
  =========                 |
  \\      /  F ield         | OpenFOAM: The Open Source CFD Toolbox
   \\    /   O peration     | Website:  https://openfoam.org
    \\  /    A nd           | Version:  10
     \\/     M anipulation  |
\*---------------------------------------------------------------------------*/
FoamFile
{
    format      ascii;
    class       volScalarField;
    location    "8.4";
    object      nut;
}
// * * * * * * * * * * * * * * * * * * * * * * * * * * * * * * * * * * * * * //

dimensions      [0 2 -1 0 0 0 0];

internalField   nonuniform List<scalar> 
2500
(
5.08427213301383e-15
1.00129340649702e-13
4.29401544778817e-13
7.49518485600776e-13
1.03254753269449e-12
1.2684072506937e-12
1.45414343987411e-12
1.59249616303114e-12
1.69008326330619e-12
1.75534366074537e-12
1.79677813548558e-12
1.8217917859326e-12
1.83617228751641e-12
1.8440580886383e-12
1.84818936201297e-12
1.85026027454381e-12
1.85125500925292e-12
1.85171344265294e-12
1.85191632003982e-12
1.85200253904656e-12
1.85203766967447e-12
1.85205131943276e-12
1.85205630220257e-12
1.85205793196512e-12
1.85205829197682e-12
1.85205804542503e-12
1.85205709245175e-12
1.85205453055008e-12
1.85204779816922e-12
1.85203063646563e-12
1.85198841507067e-12
1.85188823850073e-12
1.85165903559528e-12
1.8511535509403e-12
1.85007995871441e-12
1.84788659800124e-12
1.84358223935796e-12
1.83548058525164e-12
1.82087865101102e-12
1.79571919553626e-12
1.7543457274058e-12
1.6895190284664e-12
1.59289144198027e-12
1.45608403269596e-12
1.27234920432086e-12
1.03854483839486e-12
7.56901724827362e-13
4.36375508747397e-13
1.02901102850572e-13
5.30522377770005e-15
5.03924157664205e-13
2.60297192700617e-11
1.13940528779171e-10
1.98999663693457e-10
2.74280684107473e-10
3.37130859769391e-10
3.86741120029069e-10
4.23799696478872e-10
4.50024118048589e-10
4.67625347832315e-10
4.78845069349392e-10
4.85647302103714e-10
4.89575654369897e-10
4.91740035504784e-10
4.92879489443877e-10
4.93453551250371e-10
4.93730716005133e-10
4.93859118598637e-10
4.93916246716674e-10
4.93940659806258e-10
4.93950666013293e-10
4.93954580262976e-10
4.93956021853989e-10
4.93956500273273e-10
4.9395661043523e-10
4.93956542863107e-10
4.93956269313424e-10
4.93955532486003e-10
4.93953604786469e-10
4.93948716374556e-10
4.93936751011681e-10
4.93908501544121e-10
4.93844179207424e-10
4.93702999859081e-10
4.93404563481779e-10
4.92797706494748e-10
4.91612267483458e-10
4.89391102250202e-10
4.85405364647882e-10
4.78566860815096e-10
4.6736653396171e-10
4.49883462229096e-10
4.23915010560324e-10
3.87264327158134e-10
3.38178294918033e-10
2.75862514889719e-10
2.00937154805128e-10
1.15763023323827e-10
2.6736583665306e-11
5.25034083783482e-13
1.78811039034655e-12
4.67850225218441e-10
1.61077007568442e-07
2.80928052954666e-07
3.86406688223978e-07
4.74202605616567e-07
5.43382892157496e-07
5.95030041683446e-07
6.31594818734551e-07
6.56169313683407e-07
6.71866470307081e-07
6.81408325306847e-07
6.86935737115848e-07
6.8999148527276e-07
6.91606073101707e-07
6.92422635658341e-07
6.92818462069289e-07
6.9300259909546e-07
6.93084877585752e-07
6.93120198091328e-07
6.93134746546915e-07
6.93140470622381e-07
6.93142595028832e-07
6.93143309008069e-07
6.93143479490987e-07
6.93143385737468e-07
6.93142988824105e-07
6.9314191684448e-07
6.93139120687023e-07
6.93132055341654e-07
6.93114820697495e-07
6.93074263519628e-07
6.92982209673092e-07
6.92780793152259e-07
6.92356336934266e-07
6.91495853971477e-07
6.89820005889828e-07
6.86689059147575e-07
6.81086248891651e-07
6.71497613616737e-07
6.55827736683052e-07
6.31410888087589e-07
5.95184862790404e-07
5.4407568366091e-07
4.75585813449943e-07
3.88493069761379e-07
2.83480040894958e-07
1.63468990165274e-07
4.79464494498002e-10
1.85199360657756e-12
3.16568035873813e-12
8.34100412441805e-10
2.88325938766441e-07
5.01319611351598e-07
6.87760814705055e-07
8.42296030133994e-07
9.63678046718898e-07
1.05409373283393e-06
1.11801475088426e-06
1.16094341422994e-06
1.18835940131578e-06
1.20502878322661e-06
1.21469043964287e-06
1.22003603922571e-06
1.22286334317967e-06
1.22429487223919e-06
1.22498969653443e-06
1.22531338526622e-06
1.22545824557398e-06
1.22552053905485e-06
1.22554624886137e-06
1.22555638932589e-06
1.22556016582915e-06
1.22556144280909e-06
1.22556175433167e-06
1.22556159736234e-06
1.22556091196377e-06
1.225559051847e-06
1.22555419468066e-06
1.22554191297972e-06
1.22551193365346e-06
1.22544133877074e-06
1.22528100887868e-06
1.22493000877567e-06
1.22418997183767e-06
1.22268911302582e-06
1.21976508528487e-06
1.21430056100471e-06
1.20451900773945e-06
1.18777332545491e-06
1.16039487639291e-06
1.11770457685654e-06
1.0543011384595e-06
9.64710239800121e-07
8.44387424576131e-07
6.90927195345212e-07
5.05182995693674e-07
2.91906580916816e-07
8.5107123431441e-10
3.25725563507339e-12
4.52558183397906e-12
1.19305167329137e-09
4.11660882716552e-07
7.13701514979762e-07
9.76872726845878e-07
1.19421808703409e-06
1.36447147099123e-06
1.49104894753014e-06
1.58042721140745e-06
1.64041494292241e-06
1.67871908452951e-06
1.70201304516725e-06
1.71552060667055e-06
1.72299914122869e-06
1.72695793143087e-06
1.72896436155365e-06
1.72993933122988e-06
1.73039410322301e-06
1.73059791512724e-06
1.73068569992614e-06
1.73072199920649e-06
1.73073635098759e-06
1.73074171454368e-06
1.73074353943424e-06
1.73074399343723e-06
1.73074378448074e-06
1.7307428396668e-06
1.73074026070354e-06
1.73073351890388e-06
1.7307164596315e-06
1.73067478789262e-06
1.73057658663262e-06
1.73035339809557e-06
1.72986445744025e-06
1.72883296623811e-06
1.72673989105108e-06
1.72266016871705e-06
1.7150326585033e-06
1.70137399486657e-06
1.67798128715192e-06
1.63971655258188e-06
1.58001247530844e-06
1.49125749062891e-06
1.36567652187208e-06
1.19670294147018e-06
9.80651560904025e-07
7.18305418827903e-07
4.15899522892341e-07
1.21310402645232e-09
4.63471203286268e-12
5.83363389162092e-12
1.53804991146211e-09
5.29376598029014e-07
9.15335924137711e-07
1.25025308540325e-06
1.52597185425458e-06
1.74144241885435e-06
1.90137665280385e-06
2.01419458899795e-06
2.08987602705646e-06
2.13819609483154e-06
2.16758718713089e-06
2.18463801591908e-06
2.19408438247503e-06
2.19908886708831e-06
2.20162767288963e-06
2.20286265680314e-06
2.20343940477111e-06
2.20369823204453e-06
2.20380988650697e-06
2.20385614266216e-06
2.20387447611002e-06
2.20388135272255e-06
2.2038837077109e-06
2.2038843046545e-06
2.20388405469135e-06
2.20388287796897e-06
2.20387964636975e-06
2.20387119063461e-06
2.20384978356534e-06
2.20379746061586e-06
2.20367407992276e-06
2.20339348270898e-06
2.20277839786842e-06
2.20148005636263e-06
2.1988441736555e-06
2.19370417217804e-06
2.18409060175266e-06
2.1668692762792e-06
2.13736410791615e-06
2.08908027378131e-06
2.01370116848883e-06
1.90155529052782e-06
1.74269851817652e-06
1.52861128272919e-06
1.2542868265386e-06
9.20250156055617e-07
5.3389255445439e-07
1.55964367006006e-09
5.95341918572467e-12
7.06964890109661e-12
1.86412806669557e-09
6.40055101806636e-07
1.10401069387379e-06
1.50514573539172e-06
1.83445691626678e-06
2.09128563916369e-06
2.28165467909165e-06
2.41582902187416e-06
2.50580148112004e-06
2.56324342410029e-06
2.59819107455966e-06
2.61847453510384e-06
2.62971879364513e-06
2.63568032497948e-06
2.63870735269052e-06
2.64018132834853e-06
2.64087047804416e-06
2.64118015074043e-06
2.64131394165797e-06
2.64136947149578e-06
2.64139153533412e-06
2.64139984247829e-06
2.64140270690502e-06
2.64140344653836e-06
2.64140316588815e-06
2.64140178294282e-06
2.64139796248192e-06
2.64138795915901e-06
2.64136262650076e-06
2.64130068216409e-06
2.64115453643935e-06
2.64082197966353e-06
2.64009259825046e-06
2.63855221748895e-06
2.63542353452011e-06
2.62932014649072e-06
2.6179007355227e-06
2.59743801480622e-06
2.56236828489521e-06
2.50495752578847e-06
2.41528751444788e-06
2.28179174453049e-06
2.0925122387426e-06
1.83708086808317e-06
1.50917422331092e-06
1.10892248049093e-06
6.44576561775038e-07
1.88617544541251e-09
7.19506202690741e-12
8.21919449464558e-12
2.1675823688414e-09
7.42617218716002e-07
1.2781047804763e-06
1.73959768281143e-06
2.11753890867442e-06
2.41177933011301e-06
2.62962481255516e-06
2.78305962989835e-06
2.88591681367741e-06
2.9515854717161e-06
2.9915482651764e-06
3.01475274286305e-06
3.02762397185812e-06
3.03445307994904e-06
3.0379235763893e-06
3.03961512904039e-06
3.0404068709926e-06
3.04076308813031e-06
3.04091721384136e-06
3.04098130041591e-06
3.04100682757762e-06
3.04101647575018e-06
3.04101982638832e-06
3.04102070781854e-06
3.041020405509e-06
3.04101883989536e-06
3.04101449151282e-06
3.0410031011707e-06
3.04097425304942e-06
3.04090369258088e-06
3.04073714854042e-06
3.04035799385224e-06
3.03952601271352e-06
3.03776816237234e-06
3.03419633440391e-06
3.02722600438256e-06
3.01418053641329e-06
2.99079758748977e-06
2.95071223703198e-06
2.88507075519845e-06
2.78250497291472e-06
2.62972644598327e-06
2.41293374720948e-06
2.12004017435054e-06
1.74344832609021e-06
1.28280309724433e-06
7.46959867638812e-07
2.18932569896087e-09
8.34653320316016e-12
9.27239706037655e-12
2.44584512787016e-09
8.36335184099799e-07
1.43659062184795e-06
1.95244417508773e-06
2.37401735457093e-06
2.70173883979681e-06
2.94413624722685e-06
3.11476914598359e-06
3.22913060413129e-06
3.30214790746536e-06
3.34659445927133e-06
3.37241362393281e-06
3.38674339257949e-06
3.39435163462407e-06
3.39822119280488e-06
3.40010897921073e-06
3.40099348665396e-06
3.40139191407728e-06
3.40156454619714e-06
3.40163645542776e-06
3.40166516901505e-06
3.40167606338814e-06
3.40167987417098e-06
3.40168089528316e-06
3.40168057963285e-06
3.40167885278487e-06
3.40167403420763e-06
3.40166141014985e-06
3.4016294398212e-06
3.40155123047101e-06
3.40136657257048e-06
3.40094601041645e-06
3.40002278331811e-06
3.39807137043827e-06
3.39410481843459e-06
3.38636177450316e-06
3.37186620322945e-06
3.34587785460004e-06
3.30131586745844e-06
3.22832526623383e-06
3.11423949371263e-06
2.94422371182308e-06
2.70281126821536e-06
2.37634355173235e-06
1.95602034643617e-06
1.44095108707071e-06
8.40386842640581e-07
2.4667897386783e-09
9.39903007688679e-12
1.02234573702845e-11
2.69739241651549e-09
9.20813454907115e-07
1.57898720865718e-06
2.1432326068668e-06
2.60352450217715e-06
2.9608962132233e-06
3.22501137797343e-06
3.41085045244408e-06
3.53538509980995e-06
3.61490462018306e-06
3.66332230087941e-06
3.69146016005919e-06
3.70708534815762e-06
3.71538682193369e-06
3.71961216143352e-06
3.72167529617694e-06
3.72264290845517e-06
3.72307926215655e-06
3.7232685815955e-06
3.72334757695162e-06
3.72337919570301e-06
3.7233912377628e-06
3.72339547971701e-06
3.72339663717742e-06
3.72339631567363e-06
3.72339444720853e-06
3.72338921276919e-06
3.72337549993392e-06
3.7233407800665e-06
3.72325584048259e-06
3.72305524331881e-06
3.72259822577414e-06
3.72159460856272e-06
3.71947253731985e-06
3.71515773372648e-06
3.70673255371454e-06
3.69095624894976e-06
3.66266592543538e-06
3.61414739779097e-06
3.53465955664782e-06
3.41038554785194e-06
3.22511750559664e-06
2.96190339495633e-06
2.60566828959085e-06
2.14650029677818e-06
1.58295647467808e-06
9.2452060488368e-07
2.71725880985373e-09
1.03476554054749e-11
1.10702146386271e-11
2.92163646301725e-09
9.95952844863725e-07
1.70529032988318e-06
2.31212159847497e-06
2.80639921125346e-06
3.18975533062731e-06
3.47288779245814e-06
3.67203977880898e-06
3.80548376894853e-06
3.89070178848543e-06
3.9426033854855e-06
3.97277816570353e-06
3.98954314597011e-06
3.99845567149669e-06
4.00299525383823e-06
4.00521361729298e-06
4.00625498784856e-06
4.00672510213085e-06
4.00692932912973e-06
4.00701468413604e-06
4.00704892722963e-06
4.00706201646338e-06
4.00706665830394e-06
4.00706794719698e-06
4.00706762596887e-06
4.00706563440001e-06
4.00706003497279e-06
4.00704536919671e-06
4.00700824920259e-06
4.00691744166387e-06
4.0067029495544e-06
4.00621414007751e-06
4.0051403738402e-06
4.00286928695981e-06
3.99825020978993e-06
3.989228720407e-06
3.97233234619584e-06
3.94202815640569e-06
3.89004738515575e-06
3.80487273502388e-06
3.67167905695083e-06
3.47305297264509e-06
3.19073354986543e-06
2.80838766737994e-06
2.31509536155781e-06
1.70887044891971e-06
9.99308032596313e-07
2.94031877816596e-09
1.11910037866545e-11
1.18136620667445e-11
3.11880383502612e-09
1.06190838312821e-06
1.8158969300649e-06
2.45977683294016e-06
2.98356069287292e-06
3.38944962279233e-06
3.68906492688008e-06
3.89975602733836e-06
4.04092594347892e-06
4.13108963997873e-06
4.18601831045509e-06
4.21796536604406e-06
4.23572365594898e-06
4.24516968010555e-06
4.24998418576889e-06
4.25233866607308e-06
4.25344488045149e-06
4.25394476321804e-06
4.25416218215605e-06
4.2542531910244e-06
4.25428978244242e-06
4.25430381802553e-06
4.25430882691991e-06
4.25431024072087e-06
4.25430992478418e-06
4.25430782729892e-06
4.25430191024485e-06
4.25428641776915e-06
4.25424722198111e-06
4.2541513469244e-06
4.25392485929281e-06
4.25340859641908e-06
4.25227422211499e-06
4.24987431027559e-06
4.24499203775484e-06
4.23545449243759e-06
4.21758841543715e-06
4.18554020767821e-06
4.13056047800021e-06
4.04045914428116e-06
3.89953667965834e-06
3.68933304156213e-06
3.39044765655855e-06
2.98544473425625e-06
2.46250599839295e-06
1.81913034565832e-06
1.06493837787376e-06
3.1363306305187e-09
1.19306804399413e-11
1.24574262829051e-11
3.28980480798351e-09
1.1190453379681e-06
1.91152989048686e-06
2.58727066205208e-06
3.13638924274317e-06
3.56160939978211e-06
3.87536226504819e-06
4.09595297079731e-06
4.24375520152443e-06
4.33816848997222e-06
4.39570132561944e-06
4.42917525694975e-06
4.44779073841829e-06
4.45769801322271e-06
4.46275070517894e-06
4.46522338582289e-06
4.46638605483457e-06
4.46691193210852e-06
4.46714091197145e-06
4.46723689867358e-06
4.46727557107983e-06
4.46729045348768e-06
4.46729579579341e-06
4.46729732670149e-06
4.46729701992703e-06
4.46729483230713e-06
4.46728864141868e-06
4.46727243855374e-06
4.46723146500107e-06
4.46713125735765e-06
4.46689451879429e-06
4.4663547910501e-06
4.46516858976326e-06
4.46265845658518e-06
4.45755087722885e-06
4.44757136364753e-06
4.42887449970203e-06
4.39533172021493e-06
4.33778150410367e-06
4.24345683653735e-06
4.09590817805567e-06
3.87577691701921e-06
3.56268195118672e-06
3.1382337825585e-06
2.58982657792622e-06
1.91448564750801e-06
1.12180023737345e-06
3.306301810819e-09
1.25707818720534e-11
1.30072260119093e-11
3.436096899518e-09
1.16789466589805e-06
1.99316425721114e-06
2.69598568089759e-06
3.26661322055621e-06
3.70823719802647e-06
4.0339868188279e-06
4.26298157907649e-06
4.41641842088007e-06
4.5144457832638e-06
4.57419618174953e-06
4.60897227208464e-06
4.62832003747874e-06
4.63862210176721e-06
4.64387908992888e-06
4.64645338957093e-06
4.64766472046142e-06
4.64821307129515e-06
4.64845208221511e-06
4.64855240807979e-06
4.64859290621478e-06
4.64860853873183e-06
4.6486141806919e-06
4.64861581995951e-06
4.64861552516533e-06
4.64861326177715e-06
4.6486068372374e-06
4.64859003015643e-06
4.64854754986166e-06
4.64844367693964e-06
4.6481982713209e-06
4.64763870194414e-06
4.64640865750965e-06
4.64380523326668e-06
4.6385068573374e-06
4.62815290698664e-06
4.60875195377058e-06
4.57394221226218e-06
4.51421261091817e-06
4.41630681626682e-06
4.26313908539512e-06
4.03458813168302e-06
3.70943921706942e-06
3.26848859152989e-06
2.69845056751513e-06
1.99592592212098e-06
1.17043824093291e-06
3.45175271698989e-09
1.31173603308446e-11
1.34703240788093e-11
3.55954546582616e-09
1.20910851872418e-06
2.06195512710031e-06
2.78752171783948e-06
3.3762009268068e-06
3.83158911503575e-06
4.1674073337077e-06
4.40345954215841e-06
4.56163231700541e-06
4.66270078981102e-06
4.72431972844503e-06
4.76019475091926e-06
4.78016160169752e-06
4.7907980789624e-06
4.79622849130581e-06
4.79888925817227e-06
4.80014210464057e-06
4.80070968662524e-06
4.80095731245686e-06
4.80106138219803e-06
4.80110346572073e-06
4.8011197557729e-06
4.80112566414205e-06
4.80112740239561e-06
4.80112712147763e-06
4.80112479527315e-06
4.80111817362472e-06
4.80110085829092e-06
4.80105711507282e-06
4.80095017592058e-06
4.8006975243791e-06
4.80012136531701e-06
4.79885464812493e-06
4.79617314950532e-06
4.79071501627737e-06
4.78004740492376e-06
4.7600564388434e-06
4.72418474021503e-06
4.66262809486158e-06
4.56171983749052e-06
4.40384069235649e-06
4.16822951683726e-06
3.83297128369381e-06
3.37817592074891e-06
2.78997951886909e-06
2.06461077785157e-06
1.21151007537799e-06
3.57458156866133e-09
1.35778880360262e-11
1.38549905892416e-11
3.66228581371202e-09
1.24341687159751e-06
2.11916833068223e-06
2.86360716479748e-06
3.46725800862325e-06
3.93406249333283e-06
4.27823536889434e-06
4.5201479864121e-06
4.68225735970379e-06
4.7858567826259e-06
4.84903304969806e-06
4.88582547264826e-06
4.90631008422561e-06
4.91722680262993e-06
4.92280286540843e-06
4.92553642712206e-06
4.92682431840546e-06
4.92740818378721e-06
4.92766313068245e-06
4.92777039683846e-06
4.92781384259799e-06
4.92783070292437e-06
4.92783684556968e-06
4.92783867314295e-06
4.92783840724794e-06
4.92783602981076e-06
4.92782924397901e-06
4.92781150624384e-06
4.92776671705994e-06
4.92765724333092e-06
4.92739860603579e-06
4.92680874104375e-06
4.92551171250097e-06
4.92276564719737e-06
4.91717532535349e-06
4.90624805872235e-06
4.88576848461022e-06
4.84901710412216e-06
4.78594673106757e-06
4.68255061749676e-06
4.52076729434037e-06
4.2793051546808e-06
3.93566802604914e-06
3.46939472163526e-06
2.86613660479853e-06
2.12180282380649e-06
1.24574482280091e-06
3.67693189186715e-09
1.39607384305224e-11
1.41699987769535e-11
3.74659257892233e-09
1.27158680518855e-06
2.16611596904412e-06
2.92601694350042e-06
3.54193279709185e-06
4.01809240919945e-06
4.36911573901345e-06
4.61583789223439e-06
4.7811815906535e-06
4.88686322939799e-06
4.95132267441418e-06
4.98887229677284e-06
5.00978506505892e-06
5.02093400665369e-06
5.02663103658199e-06
5.02942520640339e-06
5.030742355623e-06
5.03133985794292e-06
5.03160095876697e-06
5.03171092439061e-06
5.03175552799368e-06
5.03177287754672e-06
5.03177922394622e-06
5.03178113116854e-06
5.03178088083908e-06
5.03177846243045e-06
5.03177154178616e-06
5.03175345766351e-06
5.03170781349645e-06
5.0315962717882e-06
5.03133275341219e-06
5.03073170991422e-06
5.02940994674841e-06
5.02661116101058e-06
5.02091283810833e-06
5.00977331444436e-06
4.9888941514224e-06
4.9514231212799e-06
4.88711411138515e-06
4.78168195001526e-06
4.61670314568172e-06
4.37045170672585e-06
4.01995519128149e-06
3.54428330692164e-06
2.92868681925113e-06
2.16880552067106e-06
1.27390402307719e-06
3.76106790544045e-09
1.42747040785366e-11
1.44241741335914e-11
3.81476199352009e-09
1.29438599387515e-06
2.20409899867847e-06
2.97649969801452e-06
3.60233242920563e-06
4.08606000540112e-06
4.4426294913607e-06
4.69324948313939e-06
4.86121767806749e-06
4.96859137752747e-06
5.03409526883525e-06
5.07226233355758e-06
5.09352492804048e-06
5.10486401944008e-06
5.11066033356896e-06
5.113504375562e-06
5.11484566835992e-06
5.11545445999957e-06
5.11572067471133e-06
5.11583289434431e-06
5.11587847103571e-06
5.11589623561492e-06
5.11590275726553e-06
5.11590473472178e-06
5.11590450004041e-06
5.11590204966634e-06
5.11589502015658e-06
5.115876656293e-06
5.11583032357222e-06
5.11571711915534e-06
5.11544967778583e-06
5.11483964683663e-06
5.11349798365142e-06
5.11065674930163e-06
5.10487140298486e-06
5.09356073772531e-06
5.07235921269537e-06
5.0343073668837e-06
4.96899835387894e-06
4.86192202392083e-06
4.69436234045414e-06
4.44424221467476e-06
4.08820398244212e-06
3.60493719086138e-06
2.97936626996945e-06
2.20690795562508e-06
1.29674688095314e-06
3.82926287846727e-09
1.45285694141204e-11
1.46260123878203e-11
3.86901135227756e-09
1.31255160244831e-06
2.23435857484727e-06
3.01671625828895e-06
3.65045203797653e-06
4.14021513019989e-06
4.50121201491616e-06
4.75494727980473e-06
4.9250159695425e-06
5.03374603834839e-06
5.10008864478736e-06
5.13875249526504e-06
5.16029715323503e-06
5.17178991534027e-06
5.17766666713521e-06
5.18055122416664e-06
5.18191218932011e-06
5.18253021060857e-06
5.18280062283198e-06
5.18291470181411e-06
5.1829610866354e-06
5.18297919922643e-06
5.18298586993027e-06
5.18298790866423e-06
5.18298768937404e-06
5.18298521486518e-06
5.18297809920476e-06
5.18295951353077e-06
5.18291263604441e-06
5.18279811783141e-06
5.18252757690161e-06
5.18191044021275e-06
5.18055302796033e-06
5.17767816377466e-06
5.17182380412514e-06
5.1603772955581e-06
5.13891970389673e-06
5.1004062070496e-06
5.03430197373347e-06
4.92591768106008e-06
4.75630426883832e-06
4.5031049029496e-06
4.14265476838067e-06
3.65333976479806e-06
3.01982247089171e-06
2.23733810987281e-06
1.31500070039433e-06
3.883704246239e-09
1.47307515581376e-11
1.47833741211252e-11
3.91139793092286e-09
1.32676520207845e-06
2.2580369845021e-06
3.04819034728871e-06
3.6881180906492e-06
4.18261445047322e-06
4.5470875202539e-06
4.80327211341596e-06
4.97499487775648e-06
5.08479493300534e-06
5.15180046441473e-06
5.19085782011962e-06
5.21262642337379e-06
5.22424150160736e-06
5.23018245391026e-06
5.23309944354799e-06
5.23447620784416e-06
5.23510166873348e-06
5.23537547893048e-06
5.23549107119287e-06
5.23553811849854e-06
5.2355565193317e-06
5.23556331537066e-06
5.2355654070444e-06
5.23556520266277e-06
5.23556271077801e-06
5.23555552871219e-06
5.23553677126468e-06
5.23548947249839e-06
5.23537393905379e-06
5.23510100176448e-06
5.23447836454995e-06
5.23310874204802e-06
5.23020776331336e-06
5.2242997335298e-06
5.21274744402095e-06
5.19109022916484e-06
5.1522165013859e-06
5.08549126976777e-06
4.97608493149329e-06
4.80486591481428e-06
4.54925817706524e-06
4.18535602335098e-06
3.691306804549e-06
3.05156650850837e-06
2.26122534617154e-06
1.32933706431255e-06
3.92641731584084e-09
1.48890149950621e-11
1.49032559054034e-11
3.94375753377146e-09
1.33763371976078e-06
2.2761481022279e-06
3.07227139315903e-06
3.71694569062797e-06
4.21507483223196e-06
4.58221967694106e-06
4.84028988642997e-06
5.01328839193074e-06
5.12391539814911e-06
5.19143444406585e-06
5.23079737504166e-06
5.25274035269306e-06
5.26445095066528e-06
5.27044219704334e-06
5.2733846808982e-06
5.27477391082942e-06
5.27540526622942e-06
5.27568178190586e-06
5.27579858641721e-06
5.27584616877163e-06
5.27586480510426e-06
5.27587170528528e-06
5.27587384227537e-06
5.27587365217791e-06
5.27587114872152e-06
5.27586391734106e-06
5.27584503122864e-06
5.27579741703445e-06
5.27568112339681e-06
5.27540638906537e-06
5.27477961733136e-06
5.27340079277797e-06
5.27048008242676e-06
5.26453140421628e-06
5.25289883006853e-06
5.2310898309383e-06
5.19194177592472e-06
5.12474302029481e-06
5.01455651000817e-06
4.84211076712282e-06
4.5846615785361e-06
4.21811825228131e-06
3.72044457624858e-06
3.07593688506989e-06
2.2795719860024e-06
1.3403537160557e-06
3.95920745990457e-09
1.50102585994861e-11
1.4991631016191e-11
3.9676610487575e-09
1.34567590890475e-06
2.28955650784552e-06
3.09010831935788e-06
3.7383085280945e-06
4.23914054739916e-06
4.60827688636195e-06
4.8677555089844e-06
5.04170911403335e-06
5.15295683405269e-06
5.22086243137781e-06
5.26045610695711e-06
5.28253120608341e-06
5.29431444486786e-06
5.30034409068116e-06
5.30330612273575e-06
5.30470495562175e-06
5.3053408755915e-06
5.30561949907352e-06
5.30573725515674e-06
5.30578526171638e-06
5.30580408738273e-06
5.30581107297892e-06
5.30581324842662e-06
5.30581307193012e-06
5.30581056188072e-06
5.30580329599285e-06
5.30578431847659e-06
5.30573648000866e-06
5.3056196450949e-06
5.30534362686248e-06
5.30471388783844e-06
5.30332842736766e-06
5.30039342235943e-06
5.29441517297612e-06
5.28272397713202e-06
5.26080379462804e-06
5.22145424289059e-06
5.15390687318356e-06
5.04314487415315e-06
4.86979277099379e-06
4.61098117061108e-06
4.24248145329083e-06
3.74212021461041e-06
3.09407389696992e-06
2.29323309698537e-06
1.34856160864759e-06
3.98361904433494e-09
1.51003672715503e-11
1.50533482375171e-11
3.98438618885296e-09
1.35131348042359e-06
2.29896387814779e-06
3.10263252814627e-06
3.75331940858201e-06
4.25606203683453e-06
4.62660978600819e-06
4.88708952010906e-06
5.06172427461553e-06
5.173416317455e-06
5.241599759392e-06
5.28136003636883e-06
5.3035309969542e-06
5.31536721951823e-06
5.32142503276699e-06
5.32440149167032e-06
5.32580745856103e-06
5.32644679441561e-06
5.32672700864534e-06
5.32684549034418e-06
5.32689382478574e-06
5.32691279951716e-06
5.32691985409376e-06
5.32692206190239e-06
5.32692189831516e-06
5.32691938596799e-06
5.32691209850182e-06
5.32689306215624e-06
5.32684507897236e-06
5.32672789336317e-06
5.32645103676433e-06
5.32581934130789e-06
5.3244294619741e-06
5.32148484933123e-06
5.31548655877289e-06
5.30375534372281e-06
5.28175878361671e-06
5.24227007384285e-06
5.1744808567071e-06
5.06331810464703e-06
4.8893328380116e-06
4.6295669618576e-06
4.25969386165865e-06
3.75744232028245e-06
3.10690278298763e-06
2.30290312006966e-06
1.35437627109464e-06
4.00090826887379e-09
1.51641164867277e-11
1.50920749202985e-11
3.99490095846122e-09
1.3548658415768e-06
2.30490097722822e-06
3.11054793402903e-06
3.7628188760931e-06
4.26678350577336e-06
4.63823809707357e-06
4.8993643971459e-06
5.07444166278613e-06
5.18642427136684e-06
5.2547907457476e-06
5.29466164750421e-06
5.31689681082341e-06
5.32876884750563e-06
5.33484588777541e-06
5.33783229729432e-06
5.33924323969911e-06
5.33988498700208e-06
5.34016633979845e-06
5.34028534950809e-06
5.34033392759505e-06
5.34035301617021e-06
5.34036012533132e-06
5.34036236012085e-06
5.34036220879203e-06
5.34035969790895e-06
5.34035240035642e-06
5.34033333429439e-06
5.34028527756523e-06
5.34016791150107e-06
5.33989061348099e-06
5.33925785949938e-06
5.33786552458693e-06
5.33491544255224e-06
5.32890550164752e-06
5.31715060432032e-06
5.29510816232838e-06
5.25553479949446e-06
5.18759691184593e-06
5.07618565500164e-06
4.90180493558707e-06
4.6414395049611e-06
4.27069928573784e-06
3.76724933609853e-06
3.11512354875494e-06
2.30910771028556e-06
1.35811247420016e-06
4.01202655958278e-09
1.52051161524506e-11
1.51102703997617e-11
3.9998553562666e-09
1.3565473826412e-06
2.30772356518661e-06
3.11432586636469e-06
3.76736934521456e-06
4.27193649921958e-06
4.64384379646173e-06
4.90529743382349e-06
5.08060229267267e-06
5.19273698281034e-06
5.26120111558899e-06
5.30113224928946e-06
5.3234031294878e-06
5.33529554326126e-06
5.34138378080138e-06
5.34437612646564e-06
5.34579011255873e-06
5.34643337515944e-06
5.34671546512806e-06
5.3468348289333e-06
5.34688357761302e-06
5.34690275021478e-06
5.34690990218518e-06
5.34691215970318e-06
5.34691202011646e-06
5.34690951373357e-06
5.34690221583335e-06
5.34688314575441e-06
5.34683507986333e-06
5.34671768918179e-06
5.34644031462691e-06
5.34580732764988e-06
5.34441433900357e-06
5.34146257566774e-06
5.33544864323666e-06
5.3236849328884e-06
5.30162429064342e-06
5.26201562940636e-06
5.19401326139139e-06
5.08249080784394e-06
4.90792868662716e-06
4.64728272012167e-06
4.2761302677937e-06
3.77210320796098e-06
3.11920536195475e-06
2.3121991763666e-06
1.35998118819424e-06
4.01761119560766e-09
1.52257805284053e-11
1.51091750370568e-11
3.99957743338113e-09
1.35646621416327e-06
2.30761066330774e-06
3.11420309023265e-06
3.76725295844101e-06
4.27183757108597e-06
4.64376858273965e-06
4.9052480160659e-06
5.0805775173124e-06
5.1927335853503e-06
5.26121483545811e-06
5.3011587337044e-06
5.32343854293913e-06
5.33533684336522e-06
5.34142875690969e-06
5.34442328798479e-06
5.34583851837722e-06
5.34648246478593e-06
5.34676492143196e-06
5.34688448002113e-06
5.34693333315217e-06
5.34695256326508e-06
5.34695974782799e-06
5.34696202446318e-06
5.34696189618468e-06
5.34695939698705e-06
5.34695210770724e-06
5.34693305797573e-06
5.34688504489737e-06
5.3467677804993e-06
5.34649068304424e-06
5.34585826180628e-06
5.34446635786543e-06
5.34151655614657e-06
5.33550597322153e-06
5.32374765724666e-06
5.30169518758063e-06
5.26209812741584e-06
5.19411110123648e-06
5.0826073888252e-06
4.90806611672887e-06
4.64744069240128e-06
4.27630495939782e-06
3.77228638817708e-06
3.1193837805205e-06
2.31235412696255e-06
1.36008795565101e-06
4.01798030631007e-09
1.52273130933851e-11
1.50888130568536e-11
3.99407364377139e-09
1.35462415541579e-06
2.30456436159847e-06
3.1101813754837e-06
3.76247095473946e-06
4.26648748157539e-06
4.63801293693111e-06
4.89921657544613e-06
5.07436790177367e-06
5.1864148831356e-06
5.25483297540731e-06
5.29474242486472e-06
5.3170045746224e-06
5.32889441585815e-06
5.33498258072072e-06
5.33797560643051e-06
5.33939031658868e-06
5.340034134379e-06
5.34031659704121e-06
5.3404361958728e-06
5.34048508946977e-06
5.3405043514609e-06
5.34051155870247e-06
5.34051385092145e-06
5.34051373354786e-06
5.34051124433398e-06
5.34050397302563e-06
5.34048496898825e-06
5.34043707295544e-06
5.34032009057984e-06
5.34004363367386e-06
5.33941259579719e-06
5.33802354940723e-06
5.335079411274e-06
5.32907961373404e-06
5.31734104082588e-06
5.29532330917232e-06
5.2557849843492e-06
5.18789336690664e-06
5.07653852634028e-06
4.9022204070596e-06
4.6419164184063e-06
4.27122586272156e-06
3.7678005708284e-06
3.11565948351041e-06
2.3095722538327e-06
1.35843192212146e-06
4.01312932264485e-09
1.52096913891692e-11
1.50480028194027e-11
3.98303122585272e-09
1.35091720387547e-06
2.29841025775494e-06
3.10202782601191e-06
3.75274388245613e-06
4.25557132524688e-06
4.62623618303159e-06
4.88684459394318e-06
5.06160318324958e-06
5.17340327675252e-06
5.24167362335815e-06
5.28149895657894e-06
5.30371554849929e-06
5.3155819223606e-06
5.32165859657683e-06
5.32464628218448e-06
5.32605864568503e-06
5.32670149716821e-06
5.32698359531714e-06
5.3271030760759e-06
5.32715194466157e-06
5.32717121223849e-06
5.3271784319121e-06
5.32718073604675e-06
5.32718062925355e-06
5.32717815323426e-06
5.32717091033452e-06
5.32715197989884e-06
5.32710427098553e-06
5.32698773947682e-06
5.32671231536773e-06
5.32608354011855e-06
5.32469925210764e-06
5.32176473647612e-06
5.31578365809328e-06
5.30408010680849e-06
5.28212535071123e-06
5.2426957884965e-06
5.17498445988702e-06
5.06391632004853e-06
4.89003549260054e-06
4.63037132728471e-06
4.26057927945265e-06
3.7583660953467e-06
3.10779769026962e-06
2.30367588990013e-06
1.35490565342893e-06
4.00273102868481e-09
1.51716737808513e-11
1.49843580323453e-11
3.96581901870419e-09
1.34513605912935e-06
2.28879841852381e-06