/*--------------------------------*- C++ -*----------------------------------*\
  =========                 |
  \\      /  F ield         | OpenFOAM: The Open Source CFD Toolbox
   \\    /   O peration     | Website:  https://openfoam.org
    \\  /    A nd           | Version:  10
     \\/     M anipulation  |
\*---------------------------------------------------------------------------*/
FoamFile
{
    format      ascii;
    class       volScalarField;
    location    "8.4";
    object      omega;
}
// * * * * * * * * * * * * * * * * * * * * * * * * * * * * * * * * * * * * * //

dimensions      [0 0 -1 0 0 0 0];

internalField   nonuniform List<scalar> 
2500
(
127860.825511389
127869.763344971
127867.269737021
127865.225431739
127863.846896108
127862.980908862
127862.455574315
127862.14456655
127861.965520362
127861.866233818
127861.812480099
127861.784636845
127861.770747367
127861.763808364
127861.760392735
127861.758581314
127861.757767342
127861.757225518
127861.756788836
127861.756520732
127861.756312002
127861.756143537
127861.756010349
127861.755932244
127861.755851755
127861.755791161
127861.755776007
127861.755782508
127861.755817937
127861.755887107
127861.756000236
127861.756214949
127861.756500251
127861.756977079
127861.757850852
127861.759571256
127861.763072919
127861.7701331
127861.784712117
127861.813148187
127861.86735079
127861.967375001
127862.146012359
127862.455238207
127862.978206102
127863.840346124
127865.219579658
127867.275368415
127869.779977679
127860.797443642
31880.6923166433
14168.3461054728
14167.1235885354
14166.1559407061
14165.4970940857
14165.0758444817
14164.8148610259
14164.6570769177
14164.5642705061
14164.5114280387
14164.4823655837
14164.4669731774
14164.4591242069
14164.455257248
14164.4534145368
14164.4525582713
14164.4521755895
14164.452000089
14164.4519136883
14164.4518703995
14164.451845176
14164.4518280004
14164.4518155041
14164.4518072265
14164.4518001064
14164.4517946613
14164.4517922426
14164.451791915
14164.4517942197
14164.4518013653
14164.4518184391
14164.4518577864
14164.4519425717
14164.4521299762
14164.4525443533
14164.4534516909
14164.4553925089
14164.4594195395
14164.4675192506
14164.483216072
14164.5125851772
14164.5656364919
14164.6583028703
14164.8153668165
14165.0750383943
14165.4950429119
14166.1550568044
14167.1291326347
14168.3589290162
31880.6492808765
31799.4097025609
3532.85827349972
50.8666257084404
50.8616569379333
50.8583134205588
50.8561873357326
50.8548741586828
50.8540814119095
50.8536151352249
50.853349256906
50.8532027653317
50.8531249664761
50.853085172055
50.8530655460108
50.8530562047304
50.8530519017251
50.8530499887118
50.8530491479933
50.853048772254
50.8530486011947
50.8530485146307
50.853048462547
50.8530484271352
50.8530484034487
50.8530483845643
50.8530483699875
50.8530483619994
50.8530483589972
50.8530483635281
50.8530483867331
50.8530484528438
50.8530486197986
50.8530490166136
50.8530499315243
50.8530519966818
50.8530565629031
50.8530663688529
50.8530867393574
50.8531276296088
50.8532067855908
50.8533546605624
50.8536214339338
50.854087135737
50.8548768517309
50.8561847273829
50.8583075222158
50.86166263655
50.8666746383523
3532.86580199801
31799.4041815202
31723.184018728
3524.2625476368
50.742087692141
50.7367648672248
50.7332725590978
50.7310989559351
50.7297824574237
50.7290014577407
50.7285489691973
50.7282942449762
50.7281554563349
50.7280824554511
50.7280454314531
50.7280273207797
50.7280187717323
50.7280148725221
50.7280131560009
50.7280124172341
50.728012100194
50.7280119628617
50.7280118981435
50.7280118615296
50.7280118372327
50.7280118209004
50.728011808399
50.7280117984958
50.7280117920375
50.7280117882252
50.7280117880313
50.7280118017053
50.7280118511885
50.7280119862901
50.7280123258377
50.7280131275523
50.7280149632086
50.7280190713529
50.7280279878501
50.7280466954984
50.7280846064693
50.7281587502226
50.7282987787225
50.7285544394128
50.7290068062312
50.7297858757966
50.7310991996429
50.7332737138932
50.7367862747388
50.7421703770394
3524.27495195128
31723.2679791236
31658.2546253943
3517.01777902527
50.6381313656083
50.6332729284972
50.6301708939352
50.6282850052587
50.6271667414664
50.62651549677
50.6261439828533
50.6259374783294
50.6258261272117
50.6257680546485
50.6257388088381
50.6257245911914
50.625717918813
50.6257148953749
50.625713574201
50.6257130137216
50.6257127800044
50.6257126831003
50.6257126404309
50.6257126177316
50.6257126029105
50.6257125929751
50.6257125856226
50.6257125795512
50.6257125748785
50.6257125711168
50.6257125686557
50.6257125743691
50.6257126052173
50.6257126999309
50.6257129508247
50.6257135545025
50.6257149507408
50.6257181043863
50.6257250060989
50.6257396018645
50.6257694196516
50.625828255961
50.6259404836325
50.6261477388158
50.6265194115731
50.6271698157727
50.6282871323121
50.6301775857071
50.6333054648285
50.638235791369
3517.03371878759
31658.4285809167
31607.4300272716
3511.4209529787
50.5586374329631
50.5546989248672
50.5522523078395
50.5508000429955
50.5499571946181
50.5494753095449
50.5492045156379
50.5490557738427
50.5489763086862
50.5489351605031
50.5489145519581
50.5489045776842
50.548899915141
50.5488978116798
50.5488968977685
50.5488965145352
50.548896358586
50.5488962967246
50.5488962715709
50.5488962592792
50.5488962513804
50.5488962461215
50.5488962423938
50.5488962390836
50.5488962360041
50.5488962328463
50.5488962301968
50.548896231023
50.5488962469019
50.548896306185
50.548896473182
50.54889688225
50.5488978359253
50.5489000057935
50.5489047850147
50.5489149544358
50.5489358646127
50.5489774294895
50.5490573976754
50.5492066119155
50.5494776058505
50.5499592759337
50.5508025104186
50.5522609827597
50.5547342862546
50.5587453269254
3511.4379860037
31607.6597399572
31570.5606043631
3507.42144226282
50.5024327019844
50.4995337424312
50.4977807153466
50.4967645393797
50.4961871882591
50.4958630146181
50.4956834637325
50.4955859238616
50.4955342384763
50.4955076330955
50.4954943640263
50.495487961525
50.495484976159
50.4954836332841
50.4954830525078
50.4954828114657
50.4954827156244
50.4954826793798
50.4954826660791
50.4954826604879
50.4954826570062
50.4954826547019
50.4954826532161
50.4954826516699
50.4954826498052
50.4954826474282
50.4954826449472
50.4954826438519
50.495482650707
50.4954826839877
50.4954827860782
50.495483040999
50.4954836395099
50.4954850094924
50.4954880417032
50.4954945236718
50.4955079190673
50.4955347055408
50.4955866199335
50.4956843863041
50.4958640483473
50.4961882093681
50.4967663493999
50.4977884577003
50.4995649655316
50.5025283949198
3507.437185382
31570.8014500445
31545.6078122181
3504.75871908339
50.4654220053369
50.4634570477342
50.4622993513681
50.4616436612725
50.4612788154573
50.4610775521186
50.4609676213077
50.4609085158359
50.4608774239205
50.4608614973784
50.4608535789898
50.4608497656798
50.4608479901523
50.460847192992
50.4608468495447
50.4608467083792
50.4608466535583
50.4608466339061
50.4608466276255
50.4608466257496
50.460846624702
50.4608466239951
50.4608466237025
50.4608466231519
50.4608466221141
50.4608466204841
50.4608466184819
50.4608466169877
50.4608466191159
50.4608466360573
50.4608466940521
50.4608468420128
50.4608471918803
50.4608479967557
50.460849784629
50.4608536192258
50.4608615734426
50.4608775544165
50.4609087182057
50.4609678901818
50.461077826777
50.4612790616184
50.4616445526308
50.4623048261632
50.4634806686788
50.4654969955492
3504.77163415363
31545.8237821707
31529.7640537014
3503.09730358543
50.4425860299991
50.441347084886
50.4406351434063
50.4402409032597
50.4400259648196
50.4399094311931
50.4398466340408
50.4398131979733
50.4397957240532
50.439786809419
50.439782387107
50.4397802596705
50.4397792696944
50.4397788257227
50.4397786350761
50.4397785574594
50.43977852804
50.43977851809
50.4397785156505
50.439778515552
50.4397785155402
50.4397785155279
50.4397785156712
50.439778515592
50.4397785150554
50.4397785140312
50.4397785125967
50.4397785113304
50.4397785115477
50.4397785193872
50.43977855012
50.4397786308044
50.4397788231021
50.4397792673566
50.4397802566273
50.4397823829215
50.43978680499
50.4397957212336
50.4398131971888
50.4398466216455
50.4399093584754
50.4400257978175
50.4402410745322
50.4406383221622
50.4413628247905
50.4426389588022
3503.10687920946
31529.9358567912
31520.2802682015
3502.12078297227
50.429315194847
50.4285828411589
50.4281719278839
50.4279492896966
50.4278303005565
50.4277668741992
50.4277331426786
50.427715348699
50.4277061046775
50.4277014044952
50.4276990763504
50.4276979567256
50.4276974356859
50.4276972021479
50.4276971021678
50.427697061858
50.4276970469531
50.4276970424404
50.4276970418265
50.4276970421532
50.4276970424583
50.4276970427021
50.4276970429236
50.4276970429443
50.427697042697
50.4276970420936
50.4276970411553
50.4276970401997
50.4276970398585
50.4276970432098
50.4276970585018
50.4276971001164
50.4276972001947
50.4276974322219
50.4276979496636
50.4276990630155
50.4277013819831
50.4277060695192
50.4277152949734
50.4277330530197
50.4277667032529
50.4278299974611
50.4279490708552
50.4281734158652
50.4285922235699
50.4293493028947
3502.12728590269
31520.4041777617
31514.9057458146
3501.5776818532
50.4220184841274
50.4216100768552
50.4213860732217
50.4212672307899
50.4212049368359
50.4211722814479
50.4211551379531
50.4211461752193
50.4211415445565
50.4211391966303
50.4211380346625
50.4211374757175
50.4211372154465
50.421137098807
50.4211370490173
50.4211370291491
50.4211370220511
50.4211370202307
50.421137020229
50.421137020553
50.4211370208705
50.4211370211284
50.4211370213126
50.4211370213672
50.4211370212603
50.4211370209127
50.421137020344
50.4211370197051
50.421137019307
50.4211370206134
50.4211370278275
50.4211370482418
50.4211370978356
50.4211372131607
50.4211374704942
50.4211380242364
50.4211391782142
50.4211415144286
50.4211461269541
50.4211550555339
50.4211721256986
50.421204650558
50.4212668890805
50.421386567261
50.4216151188874
50.4220387564298
3501.58176882913
31514.9879602893
31512.0112032695
3501.29073709652
50.418207505742
50.4179915077883
50.4178755666947
50.417815288488
50.4177842848825
50.4177682977553
50.4177600115091
50.4177557171405
50.4177535097865
50.417752393173
50.4177518407799
50.4177515748613
50.4177514509113
50.417751395356
50.4177513717096
50.4177513623754
50.4177513591973
50.4177513585369
50.4177513586611
50.4177513589125
50.4177513591495
50.4177513593417
50.4177513594679
50.417751359519
50.417751359474
50.417751359282
50.4177513589597
50.4177513585736
50.417751358283
50.4177513587376
50.4177513619727
50.4177513715459
50.4177513950557
50.4177514498627
50.4177515721309
50.4177518350233
50.4177523826569
50.4177534919983
50.4177556872934
50.4177599574485
50.4177681894906
50.4177840715106
50.4178149737711
50.4178755937415
50.4179939526775
50.4182187053726
3501.29313381569
31512.061920603
31510.5246866372
3501.1462068878
50.4163101485633
50.4162013231033
50.4161440918927
50.4161149106054
50.416100175771
50.4160927002117
50.4160888745162
50.4160869088438
50.4160859033714
50.4160853957311
50.4160851445866
50.416085023547
50.4160849670517
50.4160849417214
50.4160849309719
50.4160849267778
50.4160849254345
50.4160849252287
50.416084925339
50.4160849255036
50.4160849256544
50.4160849257758
50.4160849258527
50.4160849258884
50.4160849258696
50.4160849257688
50.4160849255967
50.4160849253814
50.4160849252
50.4160849253346
50.4160849267272
50.4160849310369
50.4160849417405
50.4160849667457
50.4160850224778
50.4160851421159
50.4160853910152
50.4160858950638
50.4160868939939
50.4160888450787
50.4160926356613
50.4161000377077
50.4161146772589
50.4161439616975
50.4162023840845
50.4163159344722
3501.14752719594
31510.5540127366
31509.7945556865
3501.07659410052
50.4154069590307
50.4153545250982
50.4153274785492
50.4153139429689
50.415307229875
50.4153038783036
50.4153021846983
50.4153013219141
50.4153008826427
50.4153006612265
50.41530055164
50.4153004987451
50.4153004740163
50.4153004629236
50.4153004582311
50.4153004564243
50.4153004558872
50.4153004558384
50.4153004559094
50.4153004560057
50.415300456092
50.4153004561611
50.4153004562041
50.4153004562254
50.4153004562177
50.4153004561674
50.4153004560805
50.4153004559684
50.4153004558702
50.4153004559017
50.4153004564763
50.4153004583436
50.4153004630404
50.4153004740312
50.4153004984899
50.4153005508716
50.4153006596198
50.4153008795963
50.4153013158297
50.4153021707781
50.4153038437816
50.4153071491409
50.415313791679
50.4153273353345
50.4153549266503
50.415409767145
3501.07728119086
31509.8105533715
31509.450715516
3501.04445176789
50.4149948806732
50.4149706392935
50.4149583612151
50.4149523253703
50.4149493835627
50.4149479379265
50.4149472166057
50.414946852257
50.4149466675938
50.4149465746419
50.4149465286035
50.414946506342
50.4149464959155
50.414946491236
50.4149464892633
50.4149464885164
50.41494648831
50.4149464883052
50.4149464883478
50.4149464883997
50.4149464884456
50.414946488482
50.4149464885045
50.414946488516
50.4149464885131
50.4149464884892
50.4149464884476
50.4149464883925
50.4149464883422
50.4149464883452
50.4149464885757
50.4149464893579
50.4149464913503
50.4149464960188
50.4149465063862
50.4149465285233
50.4149465743507
50.4149466668713
50.4149468503206
50.4149472108243
50.4149479209787
50.4149493399473
50.4149522364012
50.4149582531475
50.4149707621877
50.4149961654222
3501.04479115764
31509.4589926643
31509.295188783
3501.0302012909
50.4148144231746
50.4148036374548
50.4147982675415
50.4147956723324
50.4147944286271
50.4147938269204
50.4147935304589
50.4147933819843
50.4147933070658
50.4147932693991
50.4147932507249
50.414793241677
50.4147932374309
50.4147932355243
50.4147932347237
50.4147932344265
50.4147932343505
50.414793234355
50.4147932343783
50.4147932344047
50.4147932344276
50.4147932344458
50.414793234457
50.414793234463
50.414793234462
50.4147932344514
50.4147932344324
50.4147932344069
50.4147932343827
50.4147932343803
50.4147932344704
50.4147932347883
50.4147932356076
50.4147932375289
50.414793241785
50.4147932508409
50.4147932695223
50.4147933071375
50.4147933816526
50.4147935283782
50.4147938191737
50.41479440655
50.4147956238955
50.4147981989776
50.4148036591204
50.4148149785279
3501.0303610639
31509.299268904
31509.2275974487
3501.02413587474
50.4147386238711
50.4147339934417
50.4147317248802
50.414730646147
50.4147301375401
50.4147298952181
50.4147297773206
50.4147297187782
50.4147296893677
50.4147296745962
50.4147296672645
50.4147296637046
50.4147296620308
50.414729661279
50.4147296609648
50.4147296608507
50.4147296608241
50.4147296608288
50.4147296608407
50.4147296608535
50.4147296608645
50.4147296608732
50.4147296608788
50.4147296608818
50.4147296608818
50.4147296608774
50.4147296608693
50.4147296608582
50.4147296608473
50.4147296608452
50.4147296608797
50.4147296610053
50.4147296613326
50.4147296621004
50.4147296637965
50.4147296673911
50.4147296747767
50.4147296895984
50.4147297189125
50.4147297767098
50.4147298918894
50.414730126966
50.4147306214125
50.4147316859336
50.4147339865036
50.4147388509236
3501.02420781414
31509.2295209897
31509.1994602583
3501.02166907582
50.4147082705746
50.4147063480219
50.4147054201708
50.4147049856944
50.4147047840313
50.4147046893817
50.414704643906
50.4147046215187
50.4147046103213
50.4147046047029
50.414704601911
50.4147046005528
50.4147045999131
50.414704599626
50.4147045995068
50.4147045994647
50.4147045994562
50.4147045994594
50.4147045994653
50.4147045994714
50.4147045994767
50.4147045994808
50.4147045994836
50.4147045994853
50.4147045994856
50.4147045994841
50.4147045994809
50.4147045994764
50.4147045994719
50.4147045994708
50.4147045994838
50.4147045995322
50.4147045996593
50.4147045999577
50.4147046006148
50.4147046020019
50.4147046048395
50.4147046105124
50.4147046217074
50.4147046437952
50.414704688029
50.4147047792049
50.4147049737395
50.4147053997827
50.4147063375923
50.4147083583379
3501.02170015264
31509.2003304478
31509.1883778318
3501.02072698594
50.4146969333009
50.4146961597075
50.4146957915503
50.4146956216425
50.4146955439562
50.4146955080254
50.4146954909768
50.4146954826571
50.4146954785149
50.4146954764391
50.4146954754068
50.4146954749039
50.4146954746671
50.4146954745612
50.4146954745178
50.4146954745031
50.4146954745009
50.414695474503
50.414695474506
50.414695474509
50.4146954745116
50.4146954745137
50.4146954745152
50.4146954745162
50.4146954745167
50.4146954745164
50.4146954745154
50.4146954745138
50.4146954745122
50.4146954745117
50.4146954745166
50.4146954745348
50.4146954745827
50.4146954746954
50.414695474943
50.4146954754637
50.4146954765245
50.414695478637
50.414695482795
50.4146954910002
50.4146955075051
50.4146955418471
50.4146956161385
50.4146957815538
50.4146961521717
50.414696965297
3501.02073990124
31509.1887566904
31509.1844153
3501.02040897027
50.4146932818803
50.4146929796643
50.4146928376952
50.4146927730664
50.4146927439391
50.4146927306596
50.4146927244376
50.414692721429
50.4146927199389
50.4146927191937
50.4146927188234
50.4146927186433
50.4146927185588
50.4146927185215
50.4146927185067
50.4146927185023
50.4146927185022
50.4146927185036
50.4146927185053
50.414692718507
50.4146927185084
50.4146927185096
50.4146927185106
50.4146927185114
50.4146927185119
50.4146927185121
50.414692718512
50.4146927185116
50.4146927185112
50.4146927185111
50.4146927185129
50.4146927185195
50.414692718537
50.4146927185781
50.4146927186685
50.4146927188584
50.4146927192441
50.4146927200097
50.414692721513
50.41469272448
50.4146927304728
50.4146927430556
50.4146927706429
50.414692833059
50.4146929753092
50.4146932928243
3501.02041414696
31509.1845744568
31509.183329634
3501.02033826045
50.4146926375957
50.4146925227829
50.4146924694946
50.4146924455478
50.4146924349039
50.4146924301201
50.4146924279079
50.4146924268492
50.4146924263286
50.4146924260696
50.4146924259416
50.4146924258799
50.4146924258514
50.4146924258395
50.4146924258352
50.4146924258345
50.4146924258351
50.4146924258363
50.4146924258374
50.4146924258385
50.4146924258394
50.4146924258403
50.414692425841
50.4146924258417
50.4146924258422
50.4146924258426
50.4146924258429
50.414692425843
50.414692425843
50.414692425843
50.4146924258437
50.4146924258459
50.4146924258519
50.4146924258662
50.4146924258979
50.4146924259646
50.4146924261004
50.4146924263697
50.4146924268983
50.4146924279425
50.4146924300614
50.4146924345513
50.4146924445262
50.4146924674489
50.4146925205586
50.4146926410723
3501.02034026616
31509.1833942981
31509.1833712577
3501.02036261966
50.4146931344858
50.4146930920119
50.4146930725185
50.4146930638658
50.4146930600721
50.4146930583921
50.4146930576267
50.4146930572655
50.4146930570902
50.4146930570042
50.4146930569625
50.4146930569431
50.4146930569348
50.4146930569319
50.4146930569314
50.414693056932
50.4146930569329
50.4146930569339
50.4146930569348
50.4146930569357
50.4146930569365
50.4146930569372
50.4146930569378
50.4146930569385
50.414693056939
50.4146930569395
50.4146930569398
50.4146930569401
50.4146930569403
50.4146930569404
50.4146930569406
50.4146930569413
50.414693056943
50.4146930569474
50.4146930569576
50.4146930569797
50.4146930570252
50.4146930571162
50.4146930572958
50.4146930576523
50.414693058381
50.4146930599413
50.4146930634557
50.4146930716586
50.4146930909713
50.4146931354934
3501.0203633727
31509.1833967246
31509.1838420171
3501.02042249517
50.414694052162
50.414694036846
50.4146940298913
50.4146940268414
50.4146940255232
50.4146940249495
50.4146940246935
50.4146940245755
50.41469402452
50.414694024494
50.4146940244823
50.4146940244776
50.4146940244764
50.4146940244766
50.4146940244774
50.4146940244784
50.4146940244795
50.4146940244804
50.4146940244813
50.414694024482
50.4146940244827
50.4146940244834
50.414694024484
50.4146940244846
50.4146940244852
50.4146940244856
50.414694024486
50.4146940244864
50.4146940244866
50.4146940244867
50.4146940244868
50.4146940244868
50.4146940244871
50.414694024488
50.4146940244906
50.4146940244968
50.4146940245105
50.4146940245391
50.4146940245968
50.4146940247135
50.4146940249556
50.4146940254823
50.4146940266882
50.4146940295494
50.4146940363948
50.4146940524211
3501.02042276992
31509.1838517583
31509.1844717409
3501.02049528607
50.414695120841
50.4146951154565
50.4146951130375
50.4146951119903
50.4146951115455
50.4146951113567
50.4146951112755
50.4146951112403
50.4146951112252
50.4146951112194
50.4146951112177
50.414695111218
50.4146951112191
50.4146951112203
50.4146951112217
50.4146951112228
50.4146951112238
50.4146951112248
50.4146951112256
50.4146951112263
50.4146951112271
50.4146951112277
50.4146951112283
50.4146951112289
50.4146951112294
50.4146951112299
50.4146951112303
50.4146951112307
50.4146951112309
50.414695111231
50.414695111231
50.4146951112309
50.4146951112306
50.4146951112303
50.4146951112303
50.4146951112311
50.4146951112339
50.4146951112412
50.4146951112575
50.4146951112927
50.4146951113689
50.4146951115399
50.4146951119412
50.4146951129126
50.414695115277
50.4146951208997
3501.02049538402
31509.1844753693
31509.1851588494
3501.02057265549
50.4146962423366
50.4146962404944
50.4146962396768
50.4146962393286
50.4146962391847
50.4146962391265
50.4146962391038
50.4146962390958
50.4146962390939
50.4146962390945
50.4146962390961
50.4146962390979
50.4146962390997
50.4146962391013
50.4146962391027
50.4146962391039
50.4146962391049
50.4146962391058
50.4146962391066
50.4146962391074
50.4146962391081
50.4146962391087
50.4146962391093
50.4146962391099
50.4146962391104
50.4146962391109
50.4146962391113
50.4146962391117
50.4146962391119
50.4146962391121
50.414696239112
50.4146962391118
50.4146962391114
50.4146962391107
50.4146962391098
50.4146962391089
50.4146962391083
50.4146962391086
50.4146962391114
50.4146962391197
50.4146962391408
50.4146962391927
50.4146962393205
50.4146962396396
50.4146962404329
50.4146962423526
3501.02057269004
31509.1851601714
31509.1858661728
3501.02065160933
50.4146973818627
50.4146973812539
50.4146973809887
50.4146973808788
50.4146973808357
50.4146973808206
50.4146973808167
50.4146973808172
50.4146973808192
50.4146973808217
50.4146973808242
50.4146973808263
50.4146973808283
50.4146973808299
50.4146973808313
50.4146973808325
50.4146973808335
50.4146973808344
50.4146973808352
50.414697380836
50.4146973808367
50.4146973808373
50.4146973808379
50.4146973808385
50.414697380839
50.4146973808395
50.4146973808399
50.4146973808403
50.4146973808405
50.4146973808406
50.4146973808406
50.4146973808404
50.4146973808399
50.4146973808392
50.4146973808382
50.4146973808368
50.4146973808351
50.4146973808334
50.414697380832
50.414697380832
50.4146973808357
50.4146973808488
50.4146973808862
50.4146973809856
50.4146973812413
50.4146973818747
3501.02065162179
31509.1858666454
31509.186580454
3501.02073109908
50.4146985274038
50.4146985272147
50.4146985271354
50.4146985271045
50.4146985270943
50.4146985270926
50.4146985270943
50.4146985270971
50.4146985271
50.4146985271029
50.4146985271054
50.4146985271075
50.4146985271094
50.414698527111
50.4146985271123
50.4146985271135
50.4146985271145
50.4146985271153
50.4146985271162
50.4146985271169
50.4146985271176
50.4146985271182
50.4146985271188
50.4146985271194
50.4146985271199
50.4146985271204
50.4146985271208
50.4146985271212
50.4146985271214
50.4146985271216
50.4146985271216
50.4146985271214
50.414698527121
50.4146985271203
50.4146985271193
50.4146985271179
50.4146985271161
50.414698527114
50.4146985271116
50.4146985271093
50.4146985271079
50.4146985271091
50.4146985271177
50.4146985271453
50.4146985272214
50.4146985274184
3501.020731104
31509.1865806246
31509.1872970777
3501.02081076619
50.4146996749082
50.4146996748584
50.41469967484
50.4146996748343
50.4146996748341
50.4146996748362
50.4146996748391
50.4146996748422
50.4146996748451
50.4146996748478
50.4146996748501
50.4146996748521
50.4146996748538
50.4146996748553
50.4146996748566
50.4146996748577
50.4146996748586
50.4146996748595
50.4146996748603
50.414699674861
50.4146996748617
50.4146996748623
50.4146996748629
50.4146996748635
50.414699674864
50.4146996748645
50.4146996748649
50.4146996748653
50.4146996748655
50.4146996748657
50.4146996748658
50.4146996748656
50.4146996748653
50.4146996748647
50.4146996748638
50.4146996748626
50.414699674861
50.414699674859
50.4146996748566
50.4146996748541
50.4146996748515
50.4146996748496
50.4146996748496
50.4146996748546
50.4146996748725
50.4146996749252
3501.02081076868
31509.1872971425
31509.1880144736
3501.0208904908
50.4147008230402
50.4147008230353
50.4147008230359
50.4147008230377
50.41470082304
50.4147008230427
50.4147008230456
50.4147008230483
50.4147008230509
50.4147008230533
50.4147008230553
50.4147008230571
50.4147008230587
50.41470082306
50.4147008230612
50.4147008230623
50.4147008230632
50.414700823064
50.4147008230648
50.4147008230655
50.4147008230661
50.4147008230668
50.4147008230673
50.4147008230679
50.4147008230684
50.4147008230689
50.4147008230694
50.4147008230697
50.41470082307
50.4147008230702
50.4147008230703
50.4147008230702
50.41470082307
50.4147008230695
50.4147008230688
50.4147008230677
50.4147008230664
50.4147008230647
50.4147008230627
50.4147008230605
50.4147008230581
50.4147008230557
50.4147008230537
50.4147008230522
50.414700823052
50.4147008230583
3501.02089049249
31509.1880145034
31509.1887321191
3501.02097023369
50.4147019713687
50.4147019713776
50.4147019713837
50.4147019713872
50.4147019713897
50.4147019713921
50.4147019713944
50.4147019713966
50.4147019713988
50.4147019714007
50.4147019714025
50.4147019714041
50.4147019714054
50.4147019714067
50.4147019714078
50.4147019714087
50.4147019714096
50.4147019714104
50.4147019714111
50.4147019714119
50.4147019714125
50.4147019714131
50.4147019714137
50.4147019714142
50.4147019714148
50.4147019714153
50.4147019714157
50.4147019714161
50.4147019714164
50.4147019714167
50.4147019714168
50.4147019714168
50.4147019714166
50.4147019714163
50.4147019714157
50.4147019714149
50.4147019714138
50.4147019714125
50.414701971411
50.4147019714092
50.4147019714074
50.4147019714055
50.4147019714034
50.4147019714006
50.4147019713953
50.4147019713874
3501.02097023516
31509.1887321367
31509.1894498436
3501.02104998227
50.4147031197577
50.4147031197703
50.4147031197774
50.4147031197808
50.4147031197828
50.4147031197845
50.4147031197862
50.4147031197879
50.4147031197896
50.4147031197912
50.4147031197927
50.414703119794
50.4147031197952
50.4147031197963
50.4147031197973
50.4147031197981
50.414703119799
50.4147031197997
50.4147031198004
50.4147031198011
50.4147031198017
50.4147031198023
50.4147031198029
50.4147031198035
50.414703119804
50.4147031198045
50.414703119805
50.4147031198054
50.4147031198057
50.414703119806
50.4147031198062
50.4147031198063
50.4147031198062
50.414703119806
50.4147031198056
50.4147031198051
50.4147031198043
50.4147031198034
50.4147031198023
50.4147031198011
50.4147031197999
50.4147031197986
50.4147031197972
50.4147031197945
50.4147031197883
50.4147031197765
3501.02104998362
31509.1894498573
31509.1901675927
3501.0211297326
50.4147042681649
50.4147042681779
50.4147042681848
50.4147042681875
50.4147042681888
50.4147042681898
50.4147042681908
50.414704268192
50.4147042681932
50.4147042681944
50.4147042681956
50.4147042681967
50.4147042681977
50.4147042681987
50.4147042681995
50.4147042682003
50.4147042682011
50.4147042682018
50.4147042682025
50.4147042682031
50.4147042682037
50.4147042682043
50.4147042682049
50.4147042682055
50.414704268206
50.4147042682065
50.414704268207
50.4147042682075
50.4147042682078
50.4147042682081
50.4147042682084
50.4147042682085
50.4147042682086
50.4147042682085
50.4147042682083
50.414704268208
50.4147042682075
50.414704268207
50.4147042682063
50.4147042682057
50.4147042682051
50.4147042682046
50.4147042682038
50.4147042682019
50.4147042681961
50.4147042681837
3501.02112973388
31509.190167603
31509.1908853495
3501.02120948346
50.4147054165774
50.41470541659
50.414705416596
50.4147054165979
50.4147054165985
50.4147054165987
50.4147054165992
50.4147054165998
50.4147054166006
50.4147054166015
50.4147054166023
50.4147054166032
50.414705416604
50.4147054166048
50.4147054166056
50.4147054166063
50.414705416607
50.4147054166076
50.4147054166083
50.4147054166089
50.4147054166095
50.4147054166101
50.4147054166107
50.4147054166112
50.4147054166118
50.4147054166123
50.4147054166128
50.4147054166133
50.4147054166137
50.414705416614
50.4147054166144
50.4147054166146
50.4147054166148
50.4147054166148
50.4147054166148
50.4147054166148
50.4147054166146
50.4147054166144
50.4147054166142
50.414705416614
50.4147054166141
50.4147054166143
50.4147054166143
50.4147054166132
50.4147054166081
50.4147054165963
3501.02120948477
31509.1908853604
31509.1916031085
3501.02128923447
50.4147065649915
50.4147065650031
50.4147065650083
50.4147065650094
50.4147065650091
50.4147065650087
50.4147065650086
50.4147065650087
50.414706565009
50.4147065650095
50.4147065650101
50.4147065650107
50.4147065650114
50.414706565012
50.4147065650127
50.4147065650133
50.414706565014
50.4147065650146
50.4147065650152
50.4147065650158
50.4147065650164
50.414706565017
50.4147065650176
50.4147065650181
50.4147065650187
50.4147065650191
50.4147065650197
50.4147065650202
50.4147065650206
50.4147065650211
50.4147065650214
50.4147065650217
50.414706565022
50.4147065650223
50.4147065650224
50.4147065650225
50.4147065650227
50.4147065650228
50.414706565023
50.4147065650234
50.4147065650241
50.414706565025
50.4147065650257
50.4147065650255
50.4147065650213
50.4147065650104
3501.02128923581
31509.1916031204
31509.1923208684
3501.02136898553
50.414707713406
50.4147077134166
50.4147077134208
50.414707713421
50.4147077134199
50.4147077134189
50.4147077134182
50.4147077134179
50.4147077134178
50.4147077134179
50.4147077134183
50.4147077134187
50.4147077134191
50.4147077134197
50.4147077134202
50.4147077134207
50.4147077134213
50.4147077134219
50.4147077134224
50.414707713423
50.4147077134236
50.4147077134242
50.4147077134247
50.4147077134253
50.4147077134258
50.4147077134264
50.4147077134269
50.4147077134275
50.4147077134279
50.4147077134284
50.4147077134288
50.4147077134293
50.4147077134296
50.41470771343
50.4147077134303
50.4147077134307