/*--------------------------------*- C++ -*----------------------------------*\
  =========                 |
  \\      /  F ield         | OpenFOAM: The Open Source CFD Toolbox
   \\    /   O peration     | Website:  https://openfoam.org
    \\  /    A nd           | Version:  10
     \\/     M anipulation  |
\*---------------------------------------------------------------------------*/
FoamFile
{
    format      ascii;
    class       volScalarField;
    location    "8.4";
    object      p;
}
// * * * * * * * * * * * * * * * * * * * * * * * * * * * * * * * * * * * * * //

dimensions      [1 -1 -2 0 0 0 0];

internalField   nonuniform List<scalar> 
2500
(
100101.737184258
100101.737184948
100101.737185817
100101.737186632
100101.737187242
100101.737187678
100101.737187973
100101.737188172
100101.737188303
100101.737188391
100101.737188448
100101.737188486
100101.737188512
100101.737188528
100101.73718854
100101.737188548
100101.737188553
100101.737188557
100101.737188559
100101.737188561
100101.737188562
100101.737188562
100101.737188562
100101.737188562
100101.737188562
100101.737188561
100101.737188561
100101.737188559
100101.737188558
100101.737188556
100101.737188554
100101.737188551
100101.737188548
100101.737188543
100101.737188536
100101.737188527
100101.737188514
100101.737188496
100101.73718847
100101.73718843
100101.737188371
100101.737188283
100101.73718815
100101.737187949
100101.737187653
100101.737187214
100101.7371866
100101.737185776
100101.737184896
100101.737184208
100101.734933851
100101.734934376
100101.734935089
100101.734935794
100101.734936335
100101.734936734
100101.734937008
100101.734937196
100101.734937321
100101.734937405
100101.734937461
100101.734937498
100101.734937523
100101.734937539
100101.734937551
100101.734937559
100101.734937564
100101.734937568
100101.73493757
100101.734937572
100101.734937573
100101.734937574
100101.734937574
100101.734937574
100101.734937574
100101.734937573
100101.734937572
100101.734937571
100101.73493757
100101.734937568
100101.734937566
100101.734937563
100101.734937559
100101.734937554
100101.734937547
100101.734937538
100101.734937526
100101.734937508
100101.734937481
100101.734937443
100101.734937386
100101.734937301
100101.734937174
100101.734936985
100101.734936709
100101.734936307
100101.734935761
100101.734935048
100101.734934326
100101.734933803
100101.732677265
100101.732677659
100101.73267815
100101.732678676
100101.732679092
100101.73267941
100101.732679633
100101.73267979
100101.732679897
100101.73267997
100101.732680019
100101.732680053
100101.732680076
100101.732680091
100101.732680102
100101.73268011
100101.732680115
100101.732680119
100101.732680122
100101.732680123
100101.732680124
100101.732680125
100101.732680125
100101.732680125
100101.732680125
100101.732680124
100101.732680123
100101.732680122
100101.732680121
100101.732680119
100101.732680117
100101.732680114
100101.73268011
100101.732680105
100101.732680099
100101.73268009
100101.732680078
100101.732680061
100101.732680037
100101.732680002
100101.732679951
100101.732679877
100101.732679769
100101.732679611
100101.732679385
100101.732679064
100101.732678644
100101.73267811
100101.732677611
100101.732677216
100101.730414874
100101.730415117
100101.730415384
100101.73041571
100101.730415974
100101.730416188
100101.730416344
100101.730416457
100101.730416538
100101.730416594
100101.730416634
100101.730416662
100101.730416682
100101.730416696
100101.730416706
100101.730416713
100101.730416718
100101.730416722
100101.730416724
100101.730416726
100101.730416727
100101.730416728
100101.730416728
100101.730416728
100101.730416727
100101.730416727
100101.730416726
100101.730416725
100101.730416724
100101.730416722
100101.73041672
100101.730416717
100101.730416713
100101.730416708
100101.730416702
100101.730416694
100101.730416683
100101.730416668
100101.730416647
100101.730416617
100101.730416576
100101.730416518
100101.730416437
100101.730416322
100101.730416164
100101.730415947
100101.730415678
100101.730415346
100101.730415072
100101.730414824
100101.728147359
100101.728147455
100101.728147534
100101.728147678
100101.728147804
100101.728147919
100101.728148009
100101.72814808
100101.728148133
100101.728148174
100101.728148203
100101.728148225
100101.728148242
100101.728148254
100101.728148262
100101.728148269
100101.728148273
100101.728148277
100101.728148279
100101.728148281
100101.728148282
100101.728148282
100101.728148282
100101.728148282
100101.728148282
100101.728148281
100101.72814828
100101.728148279
100101.728148278
100101.728148276
100101.728148274
100101.728148271
100101.728148268
100101.728148264
100101.728148258
100101.72814825
100101.72814824
100101.728148227
100101.72814821
100101.728148187
100101.728148156
100101.728148115
100101.72814806
100101.728147987
100101.728147895
100101.728147778
100101.728147649
100101.7281475
100101.728147416
100101.728147313
100101.725875648
100101.725875622
100101.725875566
100101.725875567
100101.725875582
100101.725875615
100101.72587565
100101.725875685
100101.725875715
100101.72587574
100101.72587576
100101.725875777
100101.725875789
100101.725875799
100101.725875806
100101.725875812
100101.725875816
100101.725875819
100101.725875821
100101.725875822
100101.725875823
100101.725875824
100101.725875824
100101.725875824
100101.725875824
100101.725875823
100101.725875822
100101.725875821
100101.72587582
100101.725875818
100101.725875816
100101.725875814
100101.72587581
100101.725875806
100101.725875801
100101.725875794
100101.725875786
100101.725875775
100101.725875762
100101.725875744
100101.725875723
100101.725875697
100101.725875666
100101.72587563
100101.725875593
100101.725875558
100101.72587554
100101.725875537
100101.725875591
100101.72587561
100101.723600785
100101.723600676
100101.723600538
100101.723600441
100101.72360038
100101.723600354
100101.723600348
100101.723600354
100101.723600364
100101.723600377
100101.723600389
100101.7236004
100101.723600409
100101.723600417
100101.723600423
100101.723600428
100101.723600431
100101.723600434
100101.723600435
100101.723600437
100101.723600437
100101.723600438
100101.723600438
100101.723600438
100101.723600438
100101.723600437
100101.723600436
100101.723600435
100101.723600434
100101.723600432
100101.72360043
100101.723600428
100101.723600425
100101.723600421
100101.723600417
100101.723600411
100101.723600404
100101.723600396
100101.723600386
100101.723600374
100101.72360036
100101.723600347
100101.723600335
100101.723600328
100101.723600333
100101.723600358
100101.723600418
100101.723600513
100101.723600651
100101.723600755
100101.721323725
100101.721323574
100101.7213234
100101.72132325
100101.721323143
100101.721323079
100101.721323045
100101.72132303
100101.721323026
100101.721323029
100101.721323034
100101.72132304
100101.721323046
100101.721323052
100101.721323056
100101.72132306
100101.721323063
100101.721323065
100101.721323066
100101.721323067
100101.721323068
100101.721323068
100101.721323068
100101.721323068
100101.721323068
100101.721323067
100101.721323067
100101.721323066
100101.721323064
100101.721323063
100101.721323061
100101.721323059
100101.721323056
100101.721323053
100101.721323049
100101.721323045
100101.721323039
100101.721323033
100101.721323026
100101.721323019
100101.721323012
100101.721323009
100101.721323012
100101.721323026
100101.721323059
100101.721323123
100101.721323229
100101.72132338
100101.721323555
100101.721323703
100101.719045241
100101.719045082
100101.719044904
100101.719044733
100101.719044606
100101.719044521
100101.719044469
100101.719044441
100101.719044426
100101.719044421
100101.719044421
100101.719044423
100101.719044426
100101.71904443
100101.719044433
100101.719044435
100101.719044437
100101.719044439
100101.71904444
100101.719044441
100101.719044442
100101.719044442
100101.719044442
100101.719044442
100101.719044441
100101.719044441
100101.71904444
100101.719044439
100101.719044438
100101.719044437
100101.719044435
100101.719044433
100101.719044431
100101.719044428
100101.719044425
100101.719044421
100101.719044417
100101.719044413
100101.719044409
100101.719044406
100101.719044405
100101.719044409
100101.719044423
100101.719044451
100101.719044502
100101.719044587
100101.719044715
100101.719044887
100101.719045067
100101.719045226
100101.716765896
100101.71676575
100101.716765588
100101.716765418
100101.716765287
100101.716765194
100101.716765133
100101.716765095
100101.716765074
100101.716765063
100101.716765058
100101.716765057
100101.716765057
100101.716765059
100101.71676506
100101.716765062
100101.716765063
100101.716765065
100101.716765065
100101.716765066
100101.716765066
100101.716765066
100101.716765066
100101.716765066
100101.716765066
100101.716765065
100101.716765064
100101.716765064
100101.716765063
100101.716765061
100101.71676506
100101.716765058
100101.716765056
100101.716765054
100101.716765052
100101.716765049
100101.716765047
100101.716765044
100101.716765043
100101.716765043
100101.716765047
100101.716765057
100101.716765078
100101.716765115
100101.716765176
100101.716765269
100101.716765401
100101.716765573
100101.716765738
100101.716765885
100101.714486066
100101.714485943
100101.714485804
100101.714485648
100101.714485523
100101.714485429
100101.714485365
100101.714485323
100101.714485296
100101.714485281
100101.714485272
100101.714485268
100101.714485267
100101.714485266
100101.714485267
100101.714485268
100101.714485268
100101.714485269
100101.714485269
100101.71448527
100101.71448527
100101.71448527
100101.714485269
100101.714485269
100101.714485269
100101.714485268
100101.714485267
100101.714485267
100101.714485266
100101.714485265
100101.714485264
100101.714485262
100101.714485261
100101.714485259
100101.714485257
100101.714485256
100101.714485254
100101.714485254
100101.714485254
100101.714485258
100101.714485265
100101.71448528
100101.714485306
100101.714485348
100101.714485412
100101.714485506
100101.714485632
100101.71448579
100101.714485932
100101.714486056
100101.71220598
100101.712205883
100101.712205768
100101.712205631
100101.712205518
100101.712205429
100101.712205365
100101.71220532
100101.712205291
100101.712205273
100101.712205261
100101.712205255
100101.712205251
100101.712205249
100101.712205249
100101.712205248
100101.712205248
100101.712205248
100101.712205248
100101.712205248
100101.712205248
100101.712205248
100101.712205248
100101.712205248
100101.712205247
100101.712205247
100101.712205246
100101.712205245
100101.712205244
100101.712205243
100101.712205242
100101.712205241
100101.71220524
100101.712205239
100101.712205238
100101.712205237
100101.712205237
100101.712205238
100101.712205241
100101.712205247
100101.712205257
100101.712205275
100101.712205304
100101.712205348
100101.712205412
100101.712205502
100101.712205616
100101.712205754
100101.712205872
100101.712205971
100101.709925771
100101.709925697
100101.709925604
100101.709925488
100101.709925388
100101.709925306
100101.709925244
100101.7099252
100101.709925169
100101.709925148
100101.709925135
100101.709925126
100101.709925121
100101.709925118
100101.709925116
100101.709925115
100101.709925114
100101.709925114
100101.709925114
100101.709925113
100101.709925113
100101.709925113
100101.709925112
100101.709925112
100101.709925111
100101.709925111
100101.70992511
100101.70992511
100101.709925109
100101.709925108
100101.709925107
100101.709925107
100101.709925106
100101.709925105
100101.709925105
100101.709925105
100101.709925106
100101.709925108
100101.709925113
100101.70992512
100101.709925133
100101.709925153
100101.709925183
100101.709925228
100101.709925289
100101.709925372
100101.709925473
100101.709925591
100101.709925685
100101.709925761
100101.707645508
100101.707645453
100101.70764538
100101.707645283
100101.707645196
100101.707645121
100101.707645064
100101.70764502
100101.707644989
100101.707644967
100101.707644952
100101.707644942
100101.707644935
100101.707644931
100101.707644928
100101.707644926
100101.707644925
100101.707644924
100101.707644924
100101.707644923
100101.707644923
100101.707644922
100101.707644922
100101.707644921
100101.707644921
100101.70764492
100101.70764492
100101.707644919
100101.707644918
100101.707644918
100101.707644917
100101.707644917
100101.707644916
100101.707644916
100101.707644916
100101.707644917
100101.707644919
100101.707644923
100101.707644928
100101.707644938
100101.707644952
100101.707644973
100101.707645004
100101.707645047
100101.707645105
100101.70764518
100101.707645268
100101.707645366
100101.707645441
100101.707645497
100101.705365227
100101.705365186
100101.705365128
100101.705365048
100101.705364973
100101.705364907
100101.705364853
100101.705364812
100101.705364781
100101.705364758
100101.705364742
100101.705364731
100101.705364724
100101.705364718
100101.705364715
100101.705364712
100101.70536471
100101.705364709
100101.705364708
100101.705364707
100101.705364707
100101.705364706
100101.705364705
100101.705364705
100101.705364704
100101.705364704
100101.705364703
100101.705364703
100101.705364702
100101.705364702
100101.705364701
100101.705364701
100101.705364701
100101.705364701
100101.705364702
100101.705364704
100101.705364706
100101.705364711
100101.705364718
100101.705364728
100101.705364743
100101.705364765
100101.705364796
100101.705364837
100101.705364891
100101.705364958
100101.705365033
100101.705365114
100101.705365174
100101.705365214
100101.703084941
100101.703084912
100101.703084866
100101.7030848
100101.703084736
100101.703084677
100101.703084628
100101.703084589
100101.703084559
100101.703084537
100101.70308452
100101.703084508
100101.7030845
100101.703084494
100101.703084489
100101.703084486
100101.703084484
100101.703084482
100101.703084481
100101.70308448
100101.703084479
100101.703084478
100101.703084478
100101.703084477
100101.703084477
100101.703084476
100101.703084475
100101.703084475
100101.703084475
100101.703084474
100101.703084474
100101.703084474
100101.703084474
100101.703084475
100101.703084476
100101.703084478
100101.703084482
100101.703084487
100101.703084495
100101.703084506
100101.703084522
100101.703084544
100101.703084574
100101.703084613
100101.703084662
100101.703084721
100101.703084785
100101.703084852
100101.703084899
100101.703084928
100101.700804659
100101.700804638
100101.700804601
100101.700804547
100101.700804492
100101.70080444
100101.700804396
100101.700804359
100101.700804331
100101.700804308
100101.700804292
100101.700804279
100101.70080427
100101.700804264
100101.700804259
100101.700804255
100101.700804253
100101.700804251
100101.700804249
100101.700804248
100101.700804247
100101.700804246
100101.700804245
100101.700804244
100101.700804244
100101.700804243
100101.700804243
100101.700804242
100101.700804242
100101.700804242
100101.700804242
100101.700804242
100101.700804243
100101.700804244
100101.700804245
100101.700804248
100101.700804252
100101.700804258
100101.700804266
100101.700804278
100101.700804294
100101.700804316
100101.700804344
100101.70080438
100101.700804425
100101.700804477
100101.700804531
100101.700804586
100101.700804623
100101.700804645
100101.698524381
100101.698524365
100101.698524336
100101.698524291
100101.698524245
100101.698524199
100101.698524159
100101.698524126
100101.698524098
100101.698524077
100101.69852406
100101.698524048
100101.698524038
100101.698524031
100101.698524026
100101.698524022
100101.698524019
100101.698524017
100101.698524015
100101.698524013
100101.698524012
100101.698524011
100101.69852401
100101.69852401
100101.698524009
100101.698524009
100101.698524008
100101.698524008
100101.698524007
100101.698524007
100101.698524007
100101.698524008
100101.698524009
100101.69852401
100101.698524012
100101.698524015
100101.698524019
100101.698524026
100101.698524034
100101.698524046
100101.698524062
100101.698524083
100101.69852411
100101.698524144
100101.698524184
100101.698524229
100101.698524276
100101.698524321
100101.69852435
100101.698524366
100101.696244107
100101.696244096
100101.696244072
100101.696244035
100101.696243996
100101.696243956
100101.69624392
100101.696243889
100101.696243864
100101.696243843
100101.696243827
100101.696243814
100101.696243805
100101.696243797
100101.696243792
100101.696243788
100101.696243784
100101.696243782
100101.69624378
100101.696243778
100101.696243777
100101.696243776
100101.696243775
100101.696243774
100101.696243773
100101.696243773
100101.696243772
100101.696243772
100101.696243772
100101.696243772
100101.696243772
100101.696243773
100101.696243774
100101.696243775
100101.696243778
100101.696243781
100101.696243786
100101.696243792
100101.696243801
100101.696243813
100101.696243829
100101.696243849
100101.696243874
100101.696243905
100101.69624394
100101.69624398
100101.69624402
100101.696244057
100101.69624408
100101.696244092
100101.693963838
100101.693963829
100101.69396381
100101.693963779
100101.693963746
100101.693963711
100101.69396368
100101.693963651
100101.693963628
100101.693963608
100101.693963592
100101.69396358
100101.69396357
100101.693963563
100101.693963557
100101.693963553
100101.693963549
100101.693963546
100101.693963544
100101.693963542
100101.693963541
100101.69396354
100101.693963539
100101.693963538
100101.693963537
100101.693963537
100101.693963536
100101.693963536
100101.693963536
100101.693963536
100101.693963536
100101.693963537
100101.693963538
100101.69396354
100101.693963543
100101.693963546
100101.693963551
100101.693963558
100101.693963567
100101.693963578
100101.693963594
100101.693963613
100101.693963636
100101.693963664
100101.693963696
100101.69396373
100101.693963764
100101.693963794
100101.693963813
100101.693963822
100101.691683572
100101.691683565
100101.691683549
100101.691683524
100101.691683496
100101.691683466
100101.691683438
100101.691683412
100101.69168339
100101.691683372
100101.691683357
100101.691683345
100101.691683335
100101.691683328
100101.691683322
100101.691683317
100101.691683314
100101.691683311
100101.691683308
100101.691683307
100101.691683305
100101.691683304
100101.691683303
100101.691683302
100101.691683301
100101.691683301
100101.6916833
100101.6916833
100101.6916833
100101.6916833
100101.691683301
100101.691683301
100101.691683303
100101.691683305
100101.691683307
100101.691683311
100101.691683316
100101.691683323
100101.691683332
100101.691683343
100101.691683357
100101.691683375
100101.691683397
100101.691683422
100101.69168345
100101.69168348
100101.691683508
100101.691683534
100101.691683549
100101.691683556
100101.689403308
100101.689403303
100101.689403291
100101.68940327
100101.689403246
100101.68940322
100101.689403195
100101.689403172
100101.689403152
100101.689403135
100101.68940312
100101.689403109
100101.6894031
100101.689403092
100101.689403086
100101.689403082
100101.689403078
100101.689403075
100101.689403072
100101.689403071
100101.689403069
100101.689403068
100101.689403067
100101.689403066
100101.689403065
100101.689403064
100101.689403064
100101.689403064
100101.689403064
100101.689403064
100101.689403064
100101.689403065
100101.689403067
100101.689403069
100101.689403072
100101.689403075
100101.68940308
100101.689403087
100101.689403096
100101.689403106
100101.68940312
100101.689403137
100101.689403156
100101.689403179
100101.689403204
100101.68940323
100101.689403254
100101.689403275
100101.689403287
100101.689403292
100101.687123047
100101.687123044
100101.687123033
100101.687123016
100101.687122996
100101.687122973
100101.687122951
100101.687122931
100101.687122912
100101.687122897
100101.687122883
100101.687122872
100101.687122863
100101.687122856
100101.68712285
100101.687122846
100101.687122842
100101.687122839
100101.687122836
100101.687122834
100101.687122833
100101.687122831
100101.68712283
100101.687122829
100101.687122829
100101.687122828
100101.687122828
100101.687122827
100101.687122827
100101.687122828
100101.687122828
100101.687122829
100101.687122831
100101.687122833
100101.687122835
100101.687122839
100101.687122844
100101.687122851
100101.687122859
100101.687122869
100101.687122882
100101.687122897
100101.687122915
100101.687122935
100101.687122957
100101.687122979
100101.687123
100101.687123017
100101.687123027
100101.687123031
100101.684842788
100101.684842786
100101.684842777
100101.684842763
100101.684842746
100101.684842726
100101.684842707
100101.684842689
100101.684842673
100101.684842658
100101.684842646
100101.684842635
100101.684842627
100101.68484262
100101.684842614
100101.684842609
100101.684842606
100101.684842603
100101.6848426
100101.684842598
100101.684842596
100101.684842595
100101.684842594
100101.684842593
100101.684842592
100101.684842592
100101.684842591
100101.684842591
100101.684842591
100101.684842591
100101.684842592
100101.684842593
100101.684842594
100101.684842596
100101.684842599
100101.684842603
100101.684842608
100101.684842614
100101.684842622
100101.684842632
100101.684842643
100101.684842657
100101.684842673
100101.684842691
100101.68484271
100101.684842729
100101.684842747
100101.684842761
100101.684842769
100101.684842772
100101.682562531
100101.682562529
100101.682562522
100101.682562511
100101.682562496
100101.68256248
100101.682562463
100101.682562447
100101.682562432
100101.682562419
100101.682562407
100101.682562398
100101.68256239
100101.682562383
100101.682562377
100101.682562373
100101.682562369
100101.682562366
100101.682562364
100101.682562362
100101.68256236
100101.682562358
100101.682562357
100101.682562356
100101.682562356
100101.682562355
100101.682562355
100101.682562354
100101.682562355
100101.682562355
100101.682562355
100101.682562356
100101.682562358
100101.68256236
100101.682562363
100101.682562366
100101.682562371
100101.682562377
100101.682562384
100101.682562393
100101.682562404
100101.682562417
100101.682562431
100101.682562447
100101.682562463
100101.68256248
100101.682562494
100101.682562505
100101.682562512
100101.682562514
100101.680282274
100101.680282273
100101.680282268
100101.680282259
100101.680282247
100101.680282233
100101.680282218
100101.680282204
100101.680282191
100101.680282179
100101.680282169
100101.68028216
100101.680282152
100101.680282146
100101.680282141
100101.680282136
100101.680282133
100101.68028213
100101.680282127
100101.680282125
100101.680282123
100101.680282122
100101.680282121
100101.68028212
100101.680282119
100101.680282118
100101.680282118
100101.680282118
100101.680282118
100101.680282118
100101.680282119
100101.68028212
100101.680282121
100101.680282123
100101.680282126
100101.680282129
100101.680282134
100101.680282139
100101.680282146
100101.680282154
100101.680282164
100101.680282176
100101.680282188
100101.680282202
100101.680282216
100101.68028223
100101.680282242
100101.680282251
100101.680282256
100101.680282257
100101.678002019
100101.678002019
100101.678002015
100101.678002008
100101.678001998
100101.678001986
100101.678001974
100101.678001961
100101.67800195
100101.678001939
100101.67800193
100101.678001921
100101.678001914
100101.678001908
100101.678001903
100101.678001899
100101.678001896
100101.678001893
100101.67800189
100101.678001888
100101.678001887
100101.678001885
100101.678001884
100101.678001883
100101.678001882
100101.678001882
100101.678001881
100101.678001881
100101.678001881
100101.678001882
100101.678001882
100101.678001883
100101.678001884
100101.678001886
100101.678001889
100101.678001892
100101.678001896
100101.678001901
100101.678001908
100101.678001915
100101.678001924
100101.678001934
100101.678001945
100101.678001957
100101.678001969
100101.678001981
100101.678001991
100101.678001998
100101.678002002
100101.678002002
100101.675721765
100101.675721765
100101.675721762
100101.675721757
100101.675721749
100101.675721739
100101.675721729
100101.675721718
100101.675721708
100101.675721699
100101.67572169
100101.675721683
100101.675721676
100101.675721671
100101.675721666
100101.675721662
100101.675721659
100101.675721656
100101.675721654
100101.675721652
100101.67572165
100101.675721649
100101.675721647
100101.675721647
100101.675721646
100101.675721645
100101.675721645
100101.675721645
100101.675721645
100101.675721645
100101.675721645
100101.675721646
100101.675721648
100101.675721649
100101.675721652
100101.675721655
100101.675721659
100101.675721663
100101.675721669
100101.675721676
100101.675721684
100101.675721693
100101.675721702
100101.675721712
100101.675721723
100101.675721732
100101.67572174
100101.675721745
100101.675721748
100101.675721747
100101.673441511
100101.673441512
100101.673441511
100101.673441507
100101.673441501
100101.673441493
100101.673441484
100101.673441475
100101.673441467
100101.673441458
100101.673441451
100101.673441444
100101.673441438
100101.673441433
100101.673441429
100101.673441425
100101.673441422
100101.673441419
100101.673441417
100101.673441415
100101.673441413
100101.673441412
100101.673441411
100101.67344141
100101.673441409
100101.673441408
100101.673441408
100101.673441408
100101.673441408
100101.673441408
100101.673441409
100101.673441409
100101.673441411
100101.673441412
100101.673441414
100101.673441417
100101.673441421
100101.673441425
100101.67344143
100101.673441436
100101.673441443
100101.673441451
100101.673441459
100101.673441468
100101.673441476
100101.673441483
100101.673441489
100101.673441493
100101.673441495
100101.673441494
100101.671161258
100101.67116126
100101.671161259
100101.671161257
100101.671161253
100101.671161247
100101.67116124
100101.671161232
100101.671161225
100101.671161217
100101.671161211
100101.671161205
100101.6711612
100101.671161195
100101.671161191
100101.671161187
100101.671161184
100101.671161182
100101.67116118
100101.671161178
100101.671161176
100101.671161175
100101.671161174
100101.671161173
100101.671161172
100101.671161172
100101.671161171
100101.671161171
100101.671161171
100101.671161171
100101.671161172
100101.671161172
100101.671161173
100101.671161175
100101.671161177
100101.671161179
100101.671161182
100101.671161186
100101.671161191
100101.671161196
100101.671161202
100101.671161209
100101.671161216
100101.671161223
100101.671161229
100101.671161235
100101.67116124
100101.671161242
100101.671161242
100101.671161241
100101.668881006
100101.668881008
100101.668881009
100101.668881008
100101.668881005
100101.668881
100101.668880995
100101.668880989
100101.668880983
100101.668880977
100101.668880971
100101.668880966
100101.668880961
100101.668880957
100101.668880953
100101.66888095
100101.668880947
100101.668880945
100101.668880943
100101.668880941
100101.668880939
100101.668880938
100101.668880937
100101.668880936
100101.668880935
100101.668880935
100101.668880934
100101.668880934
100101.668880934
100101.668880934
100101.668880935
100101.668880935
100101.668880936
100101.668880937
100101.668880939
100101.668880941
100101.668880944
100101.668880948
100101.668880951
100101.668880956
100101.668880961
100101.668880967
100101.668880972
100101.668880978
100101.668880983
100101.668880987
100101.66888099
100101.668880991
100101.66888099
100101.668880988
100101.666600754
100101.666600757
100101.666600758
100101.666600759
100101.666600757
100101.666600754
100101.66660075
100101.666600746
100101.666600741
100101.666600736
100101.666600731
100101.666600726
100101.666600722
100101.666600718
100101.666600715
100101.666600712
100101.66660071
100101.666600707
100101.666600706
100101.666600704
100101.666600702
100101.666600701
100101.6666007
100101.666600699
100101.666600698
100101.666600698
100101.666600697
100101.666600697
100101.666600697
100101.666600697
100101.666600697
100101.666600698
100101.666600699
100101.6666007
100101.666600701
100101.666600703
100101.666600706
100101.666600709
100101.666600712
100101.666600716
100101.66660072
100101.666600724
100101.666600729
100101.666600733
100101.666600737
100101.66660074
100101.666600741
100101.66660074
100101.666600739
100101.666600736
100101.664320502
100101.664320506
100101.664320508
100101.66432051
100101.66432051
100101.664320509
100101.664320506
100101.664320502
100101.664320498
100101.664320494
100101.66432049
100101.664320487
100101.664320483
100101.66432048
100101.664320477
100101.664320474
100101.664320472
100101.66432047
100101.664320468
100101.664320467
100101.664320465
100101.664320464
100101.664320463
100101.664320462
100101.664320462
100101.664320461
100101.66432046
100101.66432046
100101.66432046
100101.66432046
100101.66432046
100101.664320461
100101.664320461
100101.664320462
100101.664320464
100101.664320465
100101.664320467
100101.664320469
100101.664320472
100101.664320475
100101.664320479
100101.664320482
100101.664320486
100101.664320489
100101.664320491
100101.664320492
100101.664320492
100101.66432049
100101.664320488
100101.664320484
100101.66204025
100101.662040255
100101.662040259
100101.662040262
100101.662040263
100101.662040263
100101.662040262
100101.662040259
100101.662040256
100101.662040253
100101.66204025
100101.662040247
100101.662040244
100101.662040241
100101.662040239
100101.662040237
100101.662040234
100101.662040233
100101.662040231
100101.66204023
100101.662040228
100101.662040227
100101.662040226
100101.662040225
100101.662040225
100101.662040224
100101.662040223
100101.662040223
100101.662040223
100101.662040223
100101.662040223
100101.662040223
100101.662040224
100101.662040225
100101.662040226
100101.662040227
100101.662040228
100101.66204023
100101.662040232
100101.662040235
100101.662040237
100101.66204024
100101.662040242
100101.662040244
100101.662040245
100101.662040245
100101.662040244
100101.662040241
100101.662040237
100101.662040232
100101.659759999
100101.659760005
100101.65976001
100101.659760015
100101.659760017
100101.659760018
100101.659760018
100101.659760016
100101.659760014
100101.659760012
100101.65976001
100101.659760007
100101.659760005
100101.659760003
100101.659760001
100101.659759999
100101.659759997
100101.659759995
100101.659759994
100101.659759992
100101.659759991
100101.65975999
100101.659759989
100101.659759988
100101.659759988
100101.659759987
100101.659759986
100101.659759986
100101.659759986
100101.659759986
100101.659759986
100101.659759986
100101.659759986
100101.659759987
100101.659759988
100101.659759989