/*--------------------------------*- C++ -*----------------------------------*\
  =========                 |
  \\      /  F ield         | OpenFOAM: The Open Source CFD Toolbox
   \\    /   O peration     | Website:  https://openfoam.org
    \\  /    A nd           | Version:  10
     \\/     M anipulation  |
\*---------------------------------------------------------------------------*/
FoamFile
{
    format      ascii;
    class       volScalarField;
    location    "8.4";
    object      p_rgh;
}
// * * * * * * * * * * * * * * * * * * * * * * * * * * * * * * * * * * * * * //

dimensions      [1 -1 -2 0 0 0 0];

internalField   nonuniform List<scalar> 
2500
(
101.850718997404
101.850720533839
101.850724724194
101.8507282629
101.850730708014
101.850732297316
101.850733291532
101.850733904241
101.850734273874
101.850734493186
101.850734621868
101.850734696694
101.850734740292
101.850734766209
101.850734781983
101.850734791937
101.850734798238
101.850734802472
101.850734805339
101.850734807202
101.850734808395
101.850734809064
101.850734809341
101.850734809283
101.850734808977
101.850734808424
101.850734807609
101.850734806503
101.850734805092
101.850734803287
101.850734800973
101.850734797961
101.850734794003
101.85073478859
101.850734781008
101.850734769832
101.850734752647
101.850734725187
101.850734679465
101.850734602471
101.850734471649
101.850734250067
101.85073387943
101.850733267449
101.85073227511
101.850730688093
101.850728236765
101.850724674383
101.850720458024
101.85071898
101.850997662841
101.851005154473
101.851015882989
101.851024517178
101.851030457867
101.851034309089
101.85103672251
101.851038203487
101.851039089626
101.851039606554
101.85103990043
101.851040063688
101.851040152906
101.851040201378
101.851040227935
101.851040242822
101.851040251393
101.851040256544
101.851040259804
101.851040261841
101.851040263107
101.851040263806
101.851040264111
101.851040264068
101.851040263777
101.851040263209
101.85104026238
101.851040261288
101.851040259862
101.851040258043
101.851040255657
101.851040252455
101.851040248017
101.851040241556
101.85104023153
101.851040215028
101.851040186462
101.8510401354
101.851040042893
101.851039875808
101.85103957809
101.851039058078
101.851038171721
101.851036695196
101.851034290725
101.851030447011
101.851024491712
101.851015797089
101.851004998825
101.850997771384
101.851297174959
101.851311317063
101.851327045151
101.851339162968
101.851347379314
101.851352658137
101.85135594639
101.85135795323
101.851359148204
101.851359841516
101.8513602327
101.851360447807
101.851360563596
101.85136062518
101.851360657922
101.851360675588
101.851360685396
101.851360691056
101.851360694505
101.851360696601
101.851360697881
101.851360698594
101.8513606989
101.851360698871
101.851360698565
101.851360697998
101.851360697197
101.851360696077
101.851360694665
101.851360692846
101.851360690431
101.851360687142
101.8513606825
101.851360675471
101.85136066415
101.85136064468
101.851360609682
101.851360545174
101.851360425615
101.851360206114
101.851359810433
101.851359113716
101.851357918684
101.851355917344
101.851352639467
101.851347365387
101.851339117129
101.851326891527
101.851311015664
101.851297145593
101.851584664124
101.851603324292
101.851621009017
101.851634050632
101.851642659385
101.851648067095
101.851651369085
101.85165334928
101.851654510887
101.851655176419
101.851655547944
101.851655750463
101.851655858773
101.851655916107
101.851655946535
101.85165596295
101.851655972117
101.851655977443
101.851655980689
101.851655982682
101.851655983904
101.851655984588
101.851655984879
101.851655984821
101.851655984501
101.851655983948
101.851655983133
101.851655982056
101.851655980659
101.851655978855
101.851655976512
101.851655973354
101.851655968916
101.851655962295
101.851655951701
101.851655933628
101.851655901191
101.85165584131
101.851655729741
101.851655523307
101.851655147635
101.851654478596
101.851653315913
101.851651338729
101.85164804227
101.851642629495
101.851633968035
101.851620774192
101.851602852941
101.851584293603
101.851835162364
101.851855165907
101.851872161904
101.851884177697
101.851891884638
101.851896609049
101.851899432615
101.851901095681
101.851902057228
101.851902602211
101.851902904178
101.851903068164
101.851903155897
101.851903202594
101.851903227653
101.851903241433
101.851903249291
101.851903253977
101.851903256873
101.851903258677
101.851903259812
101.851903260409
101.851903260671
101.851903260613
101.851903260293
101.851903259725
101.85190325891
101.851903257833
101.851903256495
101.851903254763
101.851903252507
101.851903249568
101.851903245493
101.851903239571
101.851903230418
101.851903215225
101.851903188493
101.851903139774
101.851903049581
101.851902882627
101.851902577386
101.851902029404
101.851901066155
101.851899403642
101.851896580469
101.851891842409
101.85188406895
101.851871873179
101.85185456631
101.851834437024
101.852035491713
101.852053994677
101.852068473672
101.852078305557
101.852084428698
101.852088088155
101.85209022752
101.852091465204
101.852092171175
101.852092567773
101.85209278659
101.852092905552
101.852092969653
101.852093004272
101.852093023292
101.852093034075
101.852093040448
101.852093044392
101.852093046895
101.852093048481
101.852093049485
101.852093050024
101.852093050213
101.852093050125
101.852093049791
101.852093049209
101.852093048423
101.85209304739
101.85209304608
101.852093044436
101.85209304234
101.852093039619
101.852093035966
101.852093030859
101.852093023292
101.852093011257
101.852092990885
101.852092954723
101.852092888817
101.852092767789
101.852092546658
101.85209214779
101.852091440131
101.852090201632
101.852088059692
101.852084382859
101.852078190917
101.852068175416
101.852053350827
101.852034536583
101.852183767609
101.852199005676
101.85221016359
101.852217450258
101.852221853784
101.852224416463
101.852225880502
101.852226712115
101.852227180265
101.852227441355
101.85222758523
101.852227663912
101.852227706942
101.852227730764
101.852227744326
101.852227752344
101.852227757292
101.852227760479
101.852227762574
101.852227763942
101.852227764772
101.852227765223
101.852227765368
101.852227765237
101.852227764874
101.852227764306
101.852227763549
101.852227762531
101.852227761294
101.852227759737
101.852227757787
101.852227755327
101.852227752126
101.852227747804
101.852227741736
101.852227732583
101.852227717871
101.852227692827
101.852227648473
101.852227568335
101.852227422889
101.852227160198
101.852226690724
101.852225858005
101.852224390721
101.852221811685
101.852217347361
101.852209895646
101.852198403722
101.852182757269
101.852286022797
101.852297411591
101.852305292647
101.852310242524
101.852313141004
101.852314779317
101.852315691591
101.85231619922
101.852316480916
101.852316636941
101.852316723001
101.852316770615
101.852316797231
101.852316812496
101.852316821605
101.852316827295
101.852316831006
101.852316833494
101.852316835168
101.852316836259
101.852316836943
101.852316837292
101.85231683735
101.85231683719
101.852316836812
101.852316836244
101.852316835502
101.852316834556
101.852316833363
101.852316831923
101.852316830147
101.85231682795
101.85231682517
101.852316821605
101.852316816832
101.852316810095
101.852316799923
101.85231678361
101.852316755918
101.852316707242
101.852316620047
101.85231646293
101.852316180288
101.8523156718
101.852314756979
101.852313106108
101.852310160466
101.852305077817
101.852296910103
101.852285104978
101.852352097645
101.852359922646
101.852365071201
101.852368174645
101.852369929242
101.852370886641
101.852371402725
101.85237168202
101.852371833855
101.852371917019
101.852371962945
101.852371988716
101.852372003603
101.852372012567
101.852372018271
101.852372022069
101.852372024674
101.852372026522
101.852372027774
101.852372028618
101.852372029112
101.852372029331
101.852372029331
101.852372029112
101.852372028734
101.852372028166
101.852372027439
101.852372026537
101.852372025445
101.852372024121
101.852372022535
101.852372020599
101.852372018271
101.852372015375
101.852372011708
101.852372006906
101.852372000212
101.852371990288
101.852371974441
101.852371947767
101.852371900954
101.852371816974
101.8523716645
101.85237138471
101.852370867171
101.852369901637
101.852368114414
101.852364914201
101.852359543554
101.852351356269
101.852392297646
101.852397285853
101.852400415664
101.85240221562
101.8524031899
101.85240369552
101.852403954472
101.85240408768
101.852404156962
101.852404193734
101.852404213772
101.852404225137
101.85240423205
101.852404236532
101.852404239631
101.852404241887
101.85240424356
101.852404244783
101.852404245656
101.852404246209
101.852404246529
101.852404246616
101.852404246529
101.852404246267
101.852404245859
101.852404245292
101.852404244593
101.852404243749
101.852404242745
101.852404241552
101.852404240155
101.852404238525
101.852404236604
101.85240423432
101.852404231642
101.852404228383
101.852404224308
101.852404218895
101.852404211138
101.8524041989
101.852404178091
101.852404140649
101.852404070902
101.852403937461
101.852403677942
101.852403167853
101.852402173288
101.852400308839
101.852397021765
101.852391753331
101.85241542077
101.852418390539
101.852420166382
101.852421127754
101.852421615869
101.852421847332
101.85242195327
101.852422000404
101.852422021038
101.85242203009
101.85242203431
101.852422036565
101.852422038122
101.852422039388
101.852422040509
101.852422041513
101.852422042328
101.852422042983
101.852422043448
101.852422043739
101.852422043856
101.852422043812
101.852422043608
101.852422043303
101.852422042866
101.852422042313
101.852422041644
101.852422040858
101.852422039956
101.852422038923
101.852422037729
101.852422036376
101.852422034848
101.85242203316
101.852422031327
101.852422029362
101.852422027281
101.852422025113
101.852422022712
101.852422019656
101.852422014708
101.852422005031
101.852421983975
101.852421936754
101.852421830801
101.852421597374
101.852421097923
101.852420097013
101.852418218361
101.852415051486
101.852428037993
101.852429696533
101.852430635947
101.852431100255
101.852431309424
101.852431387742
101.852431409759
101.852431409934
101.852431403779
101.852431397172
101.852431392035
101.852431388572
101.85243138652
101.852431385458
101.852431385021
101.852431384934
101.852431385007
101.852431385123
101.852431385196
101.852431385196
101.852431385109
101.852431384934
101.852431384643
101.852431384279
101.852431383813
101.85243138326
101.85243138262
101.852431381907
101.852431381092
101.85243138019
101.852431379215
101.852431378153
101.852431377032
101.852431375912
101.85243137482
101.852431373947
101.852431373438
101.852431373612
101.852431374835
101.852431377527
101.852431381965
101.85243138799
101.852431393752
101.852431393534
101.852431371735
101.852431292835
101.852431078078
101.852430591389
101.852429589475
101.852427803067
101.852434584798
101.852435455294
101.852435914581
101.852436106288
101.852436167959
101.852436167945
101.852436147892
101.852436124522
101.8524361046
101.852436089539
101.85243607896
101.852436071873
101.852436067347
101.852436064524
101.852436062836
101.852436061832
101.852436061221
101.852436060828
101.852436060522
101.852436060261
101.852436059969
101.852436059635
101.852436059256
101.852436058834
101.85243605834
101.852436057787
101.85243605719
101.852436056521
101.852436055822
101.852436055065
101.852436054294
101.852436053508
101.852436052781
101.852436052155
101.852436051791
101.852436051835
101.852436052606
101.852436054556
101.852436058252
101.852436064568
101.852436074463
101.852436088971
101.852436108515
101.852436131841
101.852436152156
101.852436152287
101.852436088244
101.852435884895
101.852435390072
101.852434442248
101.852437818176
101.852438246788
101.852438448856
101.852438502727
101.852438493472
101.852438457718
101.852438419068
101.852438385205
101.852438358866
101.852438339454
101.85243832579
101.852438316389
101.852438310103
101.852438305941
101.852438303205
101.852438301416
101.852438300179
101.85243829932
101.852438298665
101.852438298127
101.852438297632
101.852438297166
101.852438296686
101.852438296191
101.852438295668
101.852438295129
101.852438294547
101.852438293965
101.852438293354
101.852438292757
101.852438292175
101.85243829168
101.852438291302
101.852438291156
101.852438291404
101.852438292262
101.85243829411
101.852438297399
101.852438302885
101.852438311529
101.852438324539
101.852438343412
101.852438369388
101.852438403148
101.852438442016
101.852438478149
101.852438486661
101.85243842729
101.852438206217
101.852437733673
101.8524393353
101.852439531562
101.852439605165
101.852439595954
101.852439557042
101.852439508031
101.852439463095
101.852439425682
101.852439396855
101.852439375449
101.852439360053
101.852439349197
101.852439341645
101.852439336421
101.852439332841
101.852439330338
101.852439328562
101.852439327282
101.852439326292
101.852439325492
101.852439324823
101.852439324211
101.852439323644
101.852439323076
101.852439322523
101.852439321985
101.852439321447
101.852439320908
101.852439320399
101.852439319948
101.852439319569
101.852439319322
101.852439319278
101.852439319569
101.852439320384
101.852439321941
101.852439324633
101.852439329014
101.852439335766
101.852439345908
101.852439360664
101.852439381546
101.85243941001
101.852439447277
101.852439492388
101.852439541792
101.852439580704
101.852439587601
101.852439504408
101.852439284543
101.852440006143
101.852440087634
101.852440102026
101.852440068236
101.852440020259
101.852439969007
101.852439923779
101.852439886323
101.852439857132
101.852439835027
101.852439818773
101.852439806971
101.852439798517
101.852439792492
101.852439788199
101.8524397851
101.852439782859
101.852439781185
101.85243977989
101.852439778871
101.852439778013
101.852439777271
101.852439776601
101.85243977599
101.852439775408
101.852439774855
101.852439774346
101.85243977388
101.852439773458
101.852439773138
101.852439772934
101.85243977292
101.852439773196
101.85243977388
101.852439775175
101.852439777344
101.852439780749
101.852439785944
101.852439793613
101.852439804716
101.852439820344
101.852439841954
101.852439870767
101.852439908092
101.852439953378
101.852440004965
101.85244005319
101.852440086208
101.852440067232
101.852439973663
101.852440278919
101.852440307368
101.852440297356
101.852440257237
101.852440209608
101.852440161034
101.852440118251
101.852440082395
101.852440053946
101.852440031929
101.852440015369
101.852440003029
101.852439993949
101.852439987313
101.852439982467
101.852439978888
101.852439976225
101.852439974216
101.852439972659
101.852439971408
101.852439970389
101.852439969531
101.852439968774
101.852439968105
101.852439967493
101.85243996694
101.85243996646
101.852439966038
101.852439965718
101.852439965514
101.852439965485
101.852439965689
101.852439966227
101.852439967261
101.852439968963
101.852439971612
101.852439975599
101.852439981405
101.852439989714
101.852440001356
101.852440017334
101.852440038856
101.852440066941
101.852440102622
101.85244014542
101.852440194241
101.852440242146
101.852440282135
101.852440290022
101.852440255636
101.852440373201
101.852440379007
101.852440360963
101.852440322356
101.852440278832
101.852440234783
101.852440195522
101.852440162023
101.852440134884
101.852440113449
101.852440096918
101.852440084345
101.852440074887
101.852440067829
101.852440062547
101.852440058574
101.852440055576
101.852440053277
101.852440051473
101.852440050046
101.852440048868
101.852440047893
101.852440047063
101.852440046336
101.85244004571
101.852440045157
101.852440044691
101.852440044328
101.85244004408
101.852440043993
101.852440044109
101.852440044502
101.852440045288
101.852440046612
101.852440048649
101.852440051705
101.8524400561
101.852440062372
101.852440071074
101.852440082948
101.852440098883
101.852440119852
101.852440146613
101.852440179908
101.85244021914
101.852440263348
101.852440307106
101.85244034577
101.852440362898
101.852440354254
101.852440391536
101.852440388786
101.852440369723
101.852440335453
101.852440297123
101.852440258066
101.852440222618
101.852440191768
101.852440166258
101.852440145667
101.852440129471
101.852440116898
101.852440107279
101.852440099916
101.852440094328
101.85244009005
101.852440086775
101.852440084243
101.852440082235
101.852440080635
101.852440079339
101.852440078248
101.852440077346
101.852440076575
101.85244007592
101.852440075367
101.85244007493
101.85244007461
101.852440074435
101.852440074435
101.852440074683
101.85244007525
101.852440076225
101.852440077797
101.852440080125
101.852440083472
101.852440088216
101.85244009475
101.852440103627
101.85244011553
101.85244013113
101.85244015124
101.852440176386
101.852440207003
101.852440242394
101.852440281538
101.852440320014
101.852440354371
101.852440373026
101.852440374394
101.852440379691
101.852440374481
101.852440357077
101.852440327712
101.852440294606
101.852440260336
101.852440228628
101.852440200484
101.852440176765
101.852440157221
101.852440141563
101.85244012918
101.852440119517
101.852440112038
101.852440106231
101.852440101749
101.852440098257
101.852440095521
101.852440093353
101.852440091621
101.852440090195
101.852440089031
101.852440088071
101.852440087241
101.852440086572
101.852440086019
101.852440085597
101.852440085306
101.852440085189
101.852440085291
101.85244008564
101.852440086339
101.852440087489
101.852440089249
101.852440091796
101.852440095361
101.852440100294
101.852440106988
101.852440115908
101.852440127623
101.852440142684
101.852440161732
101.852440185088
101.852440212999
101.852440244606
101.852440278875
101.852440312068
101.852440341492
101.852440358649
101.852440363204
101.852440357121
101.852440351824
101.852440336879
101.852440312156
101.852440283794
101.852440253933
101.852440225761
101.852440200266
101.852440178365
101.852440160015
101.852440145041
101.852440133007
101.852440123461
101.852440115937
101.852440110044
101.852440105416
101.852440101778
101.852440098897
101.852440096598
101.85244009475
101.852440093237
101.852440092
101.852440090981
101.852440090122
101.852440089424
101.852440088871
101.852440088463
101.852440088216
101.852440088143
101.852440088303
101.852440088755
101.852440089569
101.85244009085
101.852440092742
101.852440095419
101.852440099145
101.85244010418
101.852440110903
101.852440119706
101.852440131071
101.852440145463
101.852440163333
101.852440184841
101.852440210059
101.852440238101
101.852440267903
101.852440296294
101.852440321032
101.852440335817
101.85244034075
101.852440331641
101.852440327115
101.852440314629
101.852440293995
101.852440269824
101.852440243951
101.852440219023
101.852440196089
101.852440176022
101.852440158924
101.85244014475
101.852440133182
101.852440123868
101.852440116432
101.85244011051
101.852440105824
101.852440102084
101.852440099115
101.852440096714
101.852440094779
101.852440093193
101.852440091898
101.852440090821
101.852440089933
101.85244008922
101.852440088667
101.852440088274
101.852440088041
101.852440088012
101.852440088231
101.852440088755
101.852440089642
101.852440091025
101.852440093004
101.852440095798
101.852440099581
101.852440104631
101.852440111266
101.852440119837
101.852440130737
101.852440144328
101.852440160932
101.852440180606
101.852440203249
101.852440228002
101.852440253802
101.852440277944
101.852440298535
101.85244031089
101.852440315197
101.852440306218
101.852440302624
101.852440292379
101.852440275266
101.852440254734
101.852440232396
101.852440210467
101.852440189949
101.852440171686
101.852440155883
101.852440142582
101.852440131566
101.852440122588
101.852440115312
101.852440109462
101.852440104762
101.852440100993
101.852440097951
101.852440095507
101.852440093498
101.852440091869
101.852440090515
101.852440089409
101.852440088493
101.852440087765
101.852440087197
101.852440086819
101.852440086601
101.852440086615
101.852440086877
101.852440087445
101.852440088391
101.852440089831
101.852440091869
101.852440094692
101.852440098475
101.852440103467
101.852440109928
101.852440118178
101.85244012851
101.852440141229
101.852440156523
101.852440174378
101.852440194605
101.852440216331
101.852440238552
101.852440258997
101.852440276038
101.85244028618
101.8524402896
101.852440281757
101.852440279094
101.852440270784
101.852440256684
101.852440239338
101.852440220144
101.85244020095
101.852440182702
101.8524401662
101.852440151706
101.852440139337
101.852440128947
101.852440120361
101.852440113333
101.852440107614
101.852440102972
101.852440099217
101.852440096161
101.852440093673
101.852440091636
101.852440089962
101.85244008858
101.852440087445
101.852440086514
101.852440085771
101.852440085204
101.852440084811
101.852440084622
101.852440084651
101.852440084942
101.852440085539
101.852440086514
101.852440087983
101.852440090035
101.852440092844
101.852440096569
101.852440101429
101.852440107657
101.852440115486
101.852440125193
101.85244013698
101.852440150964
101.852440167044
101.852440184972
101.852440203947
101.852440222996
101.852440240225
101.852440254239
101.852440262417
101.852440264993
101.852440258444
101.85244025664
101.852440250004
101.852440238508
101.852440223956
101.852440207556
101.852440190865
101.852440174742
101.852440159928
101.852440146744
101.852440135321
101.852440125615
101.852440117509
101.852440110772
101.852440105242
101.852440100716
101.852440097005
101.852440093964
101.852440091476
101.852440089424
101.852440087721
101.852440086324
101.852440085175
101.852440084229
101.852440083472
101.852440082905
101.852440082526
101.852440082337
101.852440082366
101.852440082672
101.852440083283
101.852440084273
101.852440085728
101.852440087765
101.852440090515
101.852440094124
101.852440098795
101.852440104718
101.852440112081
101.852440121103
101.852440131916
101.85244014459
101.852440158968
101.852440174756
101.852440191215
101.85244020744
101.852440221861
101.852440233255
101.852440239774
101.852440241521
101.852440236238
101.85244023519
101.852440230039
101.852440220784
101.852440208677
101.852440194794
101.852440180388
101.852440166243
101.852440153059
101.852440141156
101.852440130708
101.852440121715
101.852440114119
101.852440107745
101.852440102448
101.852440098068
101.852440094444
101.852440091461
101.852440088987
101.85244008695
101.852440085248
101.852440083836
101.852440082672
101.852440081726
101.852440080969
101.852440080387
101.852440080009
101.85244007982
101.852440079849
101.852440080154
101.852440080751
101.852440081726
101.852440083167
101.852440085146
101.852440087794
101.852440091257
101.852440095681
101.85244010124
101.852440108094
101.852440116403
101.85244012624
101.852440137605
101.852440150353
101.852440164148
101.852440178307
101.852440192
101.852440203962
101.852440213101
101.85244021815
101.852440219154
101.852440214949
101.852440214599
101.852440210772
101.852440203511
101.852440193587
101.852440181974
101.852440169634
101.852440157352
101.852440145711
101.852440135059
101.8524401256
101.852440117349
101.852440110291
101.852440104311
101.85244009929
101.852440095085
101.852440091592
101.852440088696
101.852440086266
101.852440084258
101.85244008257
101.852440081158
101.852440079994
101.852440079048
101.852440078277
101.852440077695
101.852440077317
101.852440077113
101.852440077142
101.852440077433
101.852440078015
101.852440078961
101.852440080329
101.852440082221
101.852440084753
101.852440088012
101.85244009216
101.852440097326
101.852440103627
101.852440111179
101.852440120041
101.852440130155
101.852440141345
101.852440153263
101.852440165327
101.852440176735
101.8524401865
101.852440193645
101.852440197399
101.852440197734
101.852440194445
101.85244019478
101.852440192131
101.85244018666
101.8524401787
101.852440169139
101.85244015872
101.852440148155
101.852440137984
101.852440128539
101.852440120056
101.852440112561
101.852440106071
101.852440100512
101.852440095798
101.852440091825
101.852440088493
101.852440085684
101.852440083327
101.852440081348
101.852440079703
101.852440078306
101.852440077142
101.852440076196
101.852440075425
101.852440074843
101.85244007445
101.852440074246
101.852440074261
101.852440074523
101.852440075061
101.852440075963
101.852440077259
101.852440079048
101.852440081406
101.852440084447
101.852440088274
101.852440093004
101.852440098737
101.852440105533
101.852440113405
101.852440122297
101.852440132017
101.852440142189
101.852440152332
101.852440161689
101.852440169489
101.852440174844
101.852440177419
101.852440177099
101.852440174582
101.852440175586
101.852440174043
101.852440170202
101.852440164017
101.852440156319
101.852440147675
101.852440138726
101.852440129951
101.852440121686
101.852440114133
101.852440107396
101.852440101502
101.852440096394
101.852440092014
101.852440088289
101.852440085131
101.852440082454
101.852440080183
101.852440078263
101.852440076647
101.852440075279
101.852440074144
101.852440073184
101.852440072427
101.852440071845
101.852440071423
101.852440071219
101.852440071205
101.852440071423
101.852440071933
101.852440072747
101.852440073955
101.8524400756
101.852440077782
101.852440080576
101.852440084069
101.852440088347
101.852440093469
101.852440099508
101.852440106421
101.852440114133
101.852440122442
101.852440130999
101.852440139366
101.852440146846
101.852440152856
101.852440156596
101.852440158094
101.852440157119
101.852440155213
101.852440156901
101.852440156406
101.852440154093
101.852440149552
101.852440143572
101.852440136543
101.852440129107
101.852440121642
101.852440114511
101.852440107905
101.852440101924
101.852440096613
101.85244009197
101.85244008794
101.852440084476
101.852440081522
101.85244007899
101.852440076822
101.852440074988
101.852440073417
101.852440072078
101.852440070958
101.852440070026
101.852440069255
101.852440068673
101.852440068251
101.852440068003
101.85244006796
101.852440068149
101.852440068586
101.852440069328
101.852440070419
101.852440071918
101.852440073897
101.852440076414
101.852440079529
101.852440083341
101.852440087881
101.852440093149
101.85244009913
101.852440105708
101.852440112678
101.852440119736
101.852440126444
101.852440132207
101.852440136587
101.852440138813
101.852440139279
101.852440137649
101.852440136237
101.852440138638
101.852440139162
101.852440138289
101.852440135262
101.852440130897
101.852440125382
101.852440119357
101.852440113144
101.85244010709
101.852440101386
101.852440096147
101.852440091432
101.85244008727
101.852440083603
101.852440080431
101.852440077681
101.852440075309
101.852440073271
101.852440071511
101.852440070012
101.852440068717
101.852440067611
101.852440066694
101.852440065937
101.85244006534
101.852440064904
101.852440064642
101.852440064555
101.852440064686
101.852440065064
101.852440065704
101.852440066665
101.852440068003
101.85244006975
101.852440071976
101.852440074726
101.852440078059
101.852440081988
101.852440086514
101.852440091578
101.852440097064
101.852440102783
101.852440108414
101.852440113609
101.852440117756
101.852440120638
101.852440121409
101.8524401209
101.852440118571
101.852440117553
101.85244012074
101.852440122268
101.852440122806
101.852440121205
101.852440118324
101.852440114235
101.85244010952
101.852440104485
101.852440099479
101.852440094633
101.852440090137
101.852440086019
101.852440082323
101.852440079048
101.852440076167
101.85244007365
101.852440071438
101.852440069531
101.852440067873
101.852440066432
101.852440065195
101.852440064118
101.852440063216
101.852440062459
101.852440061863
101.852440061411
101.85244006112
101.852440060989
101.852440061062
101.852440061353
101.852440061906
101.852440062736
101.852440063885
101.852440065384
101.85244006732
101.852440069677
101.852440072529
101.852440075847
101.85244007963
101.852440083821
101.852440088274
101.8524400928
101.852440097107
101.852440100891
101.852440103539
101.852440104994
101.852440104398
101.852440102884
101.852440099799
101.852440099072
101.852440103146
101.852440105693
101.852440107599
101.852440107381
101.852440105897
101.852440103117
101.852440099639
101.852440095725
101.852440091679
101.852440087692
101.852440083909
101.852440080373
101.852440077157
101.852440074261
101.852440071685
101.8524400694
101.852440067392
101.852440065617
101.85244006406
101.852440062692
101.852440061499
101.852440060466
101.852440059578
101.852440058836
101.852440058225
101.852440057759
101.852440057439
101.852440057279
101.852440057279
101.852440057482
101.852440057919
101.852440058588
101.852440059549
101.852440060829
101.85244006243
101.852440064409
101.852440066767
101.852440069502
101.852440072573
101.852440075905
101.852440079369
101.852440082788
101.85244008583
101.852440088303
101.852440089555
101.852440089642
101.852440087678
101.852440085175
101.852440081246
101.852440080736
101.852440085815
101.852440089409
101.852440092698
101.852440093775
101.852440093629
101.852440092072
101.852440089773
101.852440086892
101.852440083792
101.852440080605
101.852440077506
101.852440074552
101.852440071816
101.852440069299
101.852440067029
101.852440064991
101.852440063158
101.852440061528
101.852440060087
101.852440058807
101.852440057672
101.852440056682
101.852440055824
101.852440055081
101.852440054456
101.852440053975
101.852440053612
101.852440053408
101.85244005335
101.852440053466
101.852440053772
101.852440054296
101.852440055052
101.852440056071
101.852440057366
101.852440058952
101.852440060829
101.852440062983
101.852440065355
101.852440067873
101.85244007039
101.852440072747
101.852440074639
101.852440075876
101.852440075803
101.852440074596
101.852440071263
101.852440067742
101.852440062838
101.852440062459
101.852440068687
101.852440073402
101.852440078088
101.852440080416
101.852440081522
101.852440081115
101.852440079892
101.852440078001
101.852440075789
101.852440073388
101.852440070943
101.852440068556
101.852440066272
101.852440064147
101.852440062183
101.852440060393
101.852440058763
101.852440057279
101.852440055955
101.852440054761
101.852440053684
101.852440052724
101.852440051895
101.852440051152
101.852440050541
101.852440050032
101.852440049639
101.852440049362
101.852440049246
101.852440049261
101.85244004945
101.852440049814
101.852440050367
101.852440051138
101.852440052113