/*--------------------------------*- C++ -*----------------------------------*\
  =========                 |
  \\      /  F ield         | OpenFOAM: The Open Source CFD Toolbox
   \\    /   O peration     | Website:  https://openfoam.org
    \\  /    A nd           | Version:  10
     \\/     M anipulation  |
\*---------------------------------------------------------------------------*/
FoamFile
{
    format      ascii;
    class       surfaceScalarField;
    location    "8.4";
    object      phi;
}
// * * * * * * * * * * * * * * * * * * * * * * * * * * * * * * * * * * * * * //

dimensions      [1 0 -1 0 0 0 0];

internalField   nonuniform List<scalar> 
4900
(
-5.17544254215311e-12
5.19507617004824e-12
-7.88371122324987e-12
2.73866737300238e-12
-7.76499360006014e-12
-8.62856854792397e-14
-6.23139604279395e-12
-1.50188413015555e-12
-4.52516046589163e-12
-1.67509012403137e-12
-3.13469233002282e-12
-1.35952488178776e-12
-2.13209612535646e-12
-9.71742803828097e-13
-1.44433013599542e-12
-6.57041007791904e-13
-9.82028464662555e-13
-4.31787777852986e-13
-6.72595994489675e-13
-2.79208555283689e-13
-4.64541452252961e-13
-1.78176944899451e-13
-3.22983674644493e-13
-1.12060999182675e-13
-2.2492598078823e-13
-6.89545508369761e-14
-1.55439900883761e-13
-4.07754806301628e-14
-1.04929951066423e-13
-2.21782340005749e-14
-6.72541962360868e-14
-9.70478988900241e-15
-3.84656441564461e-14
-1.15466595352805e-15
-1.59748782226226e-14
4.82954559309616e-15
1.95147091516766e-15
9.10630616650185e-15
1.6507071613467e-14
1.22139040883889e-14
2.8552968423554e-14
1.44851943761795e-14
3.87274804348132e-14
1.61412852105106e-14
4.75440241971954e-14
1.73073555637349e-14
5.54165023404419e-14
1.80808437294919e-14
6.27210044154514e-14
1.84996204904691e-14
6.98003136137322e-14
1.85951811511198e-14
7.70020844829246e-14
1.83620736085165e-14
8.46904007560199e-14
1.77822790227963e-14
9.32872733955284e-14
1.67974694104666e-14
1.03293130964288e-13
1.53287227332999e-14
1.15347166020358e-13
1.32370829666383e-14
1.30302981674065e-13
1.03077756108496e-14
1.49341833488088e-13
6.21436445115783e-15
1.74197701820367e-13
4.04358979119023e-16
2.07465319980565e-13
-7.98222879223154e-15
2.53118028818464e-13
-2.03233688402255e-14
3.17307701524249e-13
-3.87996283183465e-14
4.09634780038628e-13
-6.68622773120329e-14
5.4498846402804e-13
-1.09805769966776e-13
7.46356283095372e-13
-1.7573616749018e-13
1.04859857217226e-12
-2.76536828952887e-13
1.50335005196716e-12
-4.28991795677398e-13
2.18398335220751e-12
-6.54840426645124e-13
3.18228865695951e-12
-9.72478673421224e-13
4.57662267627141e-12
-1.3683984685765e-12
6.30176695548231e-12
-1.69887256607063e-12
7.8656879132798e-12
-1.53689902694776e-12
7.98955893661992e-12
-9.55778855637999e-14
5.22247963789635e-12
2.7958459185018e-12
5.24268103144544e-12
-8.43667726671894e-12
1.36593603990782e-11
-1.41281978874132e-11
8.47009169614962e-12
-1.44292630541379e-11
2.56712345636666e-13
-1.19255306062035e-11
-3.96457867782333e-12
-8.87378003208907e-12
-4.68655059994918e-12
-6.29209631379217e-12
-3.90127230162264e-12
-4.3790406740856e-12
-2.84508524878302e-12
-3.04032990548683e-12
-1.95629229605866e-12
-2.12276146094039e-12
-1.31022908710017e-12
-1.49595449419711e-12
-8.67296172743445e-13
-1.06439071182444e-12
-5.71482046949111e-13
-7.62715750229623e-13
-3.75967409475039e-13
-5.47427794942239e-13
-2.46971544036238e-13
-3.9006340193391e-13
-1.61359806711865e-13
-2.72114901829707e-13
-1.03818571115065e-13
-1.81542379024756e-13
-6.44165447775979e-14
-1.10443784280811e-13
-3.68100255462205e-14
-5.35142059275662e-14
-1.7044015279257e-14
-7.11241734574665e-15
-2.59540100566319e-15
3.13537739344507e-14
8.12270541060183e-15
6.37987843114896e-14
1.61207498059827e-14
9.16984637240419e-14
2.20566699820341e-14
1.16248355251987e-13
2.63361258961689e-14
1.3844865751416e-13
2.92496973046468e-14
1.59206007688649e-13
3.09279610372775e-14
1.79365173917935e-13
3.14629682875207e-14
1.99773521349176e-13
3.08453319219263e-14
2.21329225289738e-13
2.90048677012107e-14
2.45028883402543e-13
2.57840276928128e-14
2.72050506173791e-13
2.09216285541511e-14
3.03855203814817e-13
1.39948354510231e-14
3.42343324724211e-13
4.35164099454588e-15
3.90080676647723e-13
-9.00100758247411e-15
4.5070439378253e-13
-2.76845650340803e-14
5.29521914745052e-13
-5.4229337822728e-14
6.34474274278292e-13
-9.26463637894699e-14
7.77617780181816e-13
-1.49234100281282e-13
9.7747191139333e-13
-2.33909617365639e-13
1.2624922776233e-12
-3.61911398129018e-13
1.67619797317425e-12
-5.56418223404665e-13
2.28402796273916e-12
-8.51244890853225e-13
3.18195412098571e-12
-1.29371757575048e-12
4.50208983182029e-12
-1.94171647311766e-12
6.40246013793945e-12
-2.83951020171756e-12
8.98768611775968e-12
-3.9200743629288e-12
1.20720240936867e-11
-4.74910226596754e-12
1.4631568362826e-11
-4.06120735745479e-12
1.43436074853756e-11
2.29125924180607e-13
8.5494690261443e-12
8.62597617966518e-12
1.38158322871483e-11
-7.43677192709021e-12
2.11261624484478e-11
-1.37212818505534e-11
1.47965459001595e-11
-1.45847019088179e-11
1.16359819669615e-12
-1.24702605379528e-11
-6.03661760400885e-12
-9.57826534179345e-12
-7.53708183778292e-12
-7.0138141229479e-12
-6.4248210461885e-12
-5.04491703237649e-12
-4.77348139180538e-12
-3.62446626483506e-12
-3.33662988576242e-12
-2.62083592721593e-12
-2.27416838995684e-12
-1.91323860523292e-12
-1.53566467141119e-12
-1.40944983920879e-12
-1.03653026488068e-12
-1.04486409418688e-12
-7.02313062767698e-13
-7.75554836319e-13
-4.78538491867859e-13
-5.72150498237638e-13
-3.27506821699748e-13
-4.150738386361e-13
-2.2410075004756e-13
-2.91221928996207e-13
-1.5191250087209e-13
-1.91708423486217e-13
-1.00376092190613e-13
-1.10383869047116e-13
-6.2800619487101e-14
-4.28703140100237e-14
-3.48885618184125e-14
1.40463179801224e-14
-1.38924335784339e-14
6.28122829994126e-14
1.96859567240332e-15
1.05364120804228e-13
1.38589687722451e-14
1.43297324696012e-13
2.25256253429021e-14
1.77986305806834e-13
2.847841072269e-14
2.10672245955461e-13
3.19809270578939e-14
2.42535720606311e-13
3.31835464371486e-14
2.74748775854258e-13
3.20843229534252e-14
3.08549755728223e-13
2.8545532776569e-14
3.45294735438363e-13
2.2291406777829e-14
3.86568833410773e-13
1.28302168179718e-14
4.34286387451913e-13
-5.8903826371828e-16
4.90865573213631e-13
-1.91227928334506e-14
5.59491408568683e-13
-4.45300636865466e-14
6.44523382667262e-13
-7.96058526015912e-14
7.52115673424369e-13
-1.28673795738011e-13
8.91171214234263e-13
-1.98493902133088e-13
1.0748101802016e-12
-2.99583060069559e-13
1.32262461823281e-12
-4.48333701011345e-13
1.66402368755316e-12
-6.69805644359448e-13
2.14300665334179e-12
-1.00177615470344e-12
2.82439847582835e-12
-1.49889518017481e-12
3.80107874648896e-12
-2.23654904886691e-12
5.19583799701156e-12
-3.30252530170891e-12
7.14548683206354e-12
-4.75506960379584e-12
9.70815422077453e-12
-6.44835401035401e-12
1.26302607176222e-11
-7.6361277401098e-12
1.48043727721179e-11
-6.19892002573812e-12
1.39673955225325e-11
1.10398054733556e-12
7.58600632689995e-12
1.50439258451873e-11
2.14254060486329e-11
-4.74092593032306e-12
2.58986753513184e-11
-9.87398610111128e-12
1.99729004917533e-11
-1.11804012661014e-11
2.51448537049073e-12
-1.00970849013069e-11
-7.07671766276438e-12
-8.16711999526565e-12
-9.42498139892124e-12
-6.29155933068571e-12
-8.25909065004961e-12
-4.75478907759153e-12
-6.26953621877134e-12
-3.58287664073208e-12
-4.46833822207219e-12
-2.7107237119396e-12
-3.10661652047576e-12
-2.06436968942577e-12
-2.14281639453943e-12
-1.58168277836799e-12
-1.48051788940288e-12
-1.21644352640371e-12
-1.02935165909223e-12
-9.35576159255942e-13
-7.21690763744188e-13
-7.15870787870842e-13
-5.09966374163492e-13
-5.41080294145869e-13
-3.62090736104916e-13
-3.99785996788493e-13
-2.56826998667688e-13
-2.838504274817e-13
-1.80324160544021e-13
-1.87382108162952e-13
-1.23646114305135e-13
-1.0600351218606e-13
-8.09790994555869e-14
-3.63890845221852e-14
-4.85247932606403e-14
2.40821487238144e-14
-2.37978893772581e-14
7.75352142707599e-14
-5.13904861712726e-15
1.25756093023076e-13
8.53718694339739e-15
1.70316394585565e-13
1.79535283663383e-14
2.12636296522761e-13
2.35247164386114e-14
2.54084989808208e-13
2.54495126568705e-14
2.96020592079829e-13
2.37371496907872e-14
3.39862397326121e-13
1.81861673820553e-14
3.87161228342529e-13
8.38930349691182e-15
4.39684484433702e-13
-6.36251387384705e-15
4.99536674910259e-13
-2.71578728293816e-14
5.69304046880987e-13
-5.56343081531585e-14
6.52291961619235e-13
-9.42692643115014e-14
7.5284148445464e-13
-1.46892384896997e-13
8.76836776732582e-13
-2.19369535581214e-13
1.03240445391857e-12
-3.20703104376652e-13
1.23097254776607e-12
-4.64711233441797e-13
1.48879255174537e-12
-6.72612533238975e-13
1.82912464641905e-12
-9.76479098271767e-13
2.2851508025186e-12
-1.42401508520206e-12
2.90335844646891e-12
-2.08318201441781e-12
3.74653223224015e-12
-3.04567008519573e-12
4.89032507077009e-12
-4.41212752210144e-12
6.40409244865825e-12
-6.23446372792239e-12
8.27100591211714e-12
-8.28054346313352e-12
1.02202767715926e-11
-9.54990870018436e-12
1.13540153156401e-11
-7.29574449272501e-12
1.00858500594253e-11
2.41053999058495e-12
4.88805801624115e-12
2.02784838912668e-11
2.63369566796418e-11
-1.86241173673612e-12
2.77933897633051e-11
-5.13557603553179e-12
2.32896660708605e-11
-6.68033514616567e-12
4.10348883988111e-12
-6.71403340753129e-12
-7.00019648102306e-12
-5.95098643511027e-12
-1.01465310050535e-11
-4.96816277998374e-12
-9.20136947230761e-12
-4.02937266735358e-12
-7.16850006709016e-12
-3.22890741504302e-12
-5.22958348773197e-12
-2.57654949087329e-12
-3.72030709585634e-12
-2.05459277410925e-12
-2.62662996078864e-12
-1.63869385375331e-12
-1.85877630349153e-12
-1.30644312522988e-12
-1.32444705224193e-12
-1.03929353627386e-12
-9.52150812157921e-13
-8.22645504725842e-13
-6.90370693768703e-13
-6.45244396807321e-13
-5.03671008093656e-13
-4.9847785199132e-13
-3.68171996103229e-13
-3.75749136600229e-13
-2.68003971520172e-13
-2.71986729851834e-13
-1.92705746945469e-13
-1.83223465550494e-13
-1.35358214890028e-13
-1.06313456068519e-13
-9.13423735361618e-14
-3.86987536167751e-14
-5.75843548545363e-14
2.17531390083558e-14
-3.20009429317857e-14
7.68674908511928e-14
-1.31993220213351e-14
1.28275974153881e-13
-2.65221963827531e-16
1.77470700803413e-13
7.35605185877725e-15
2.25890250370091e-13
9.91430998766383e-15
2.7496449247621e-13
7.42626388078291e-15
3.26178148478461e-13
-3.64555750112517e-16
3.81144556311001e-13
-1.39955118510857e-14
4.41670295230759e-13
-3.43693658093885e-14
5.09863526910967e-13
-6.28773991014859e-14
5.8824649508039e-13
-1.01569435994751e-13
6.7994021417836e-13
-1.53522466512803e-13
7.88870817937858e-13
-2.2336922854959e-13
9.20091527148012e-13
-3.18102207722586e-13
1.08016266179219e-12
-4.4822969254659e-13
1.27767280843939e-12
-6.29599182471245e-13
1.52386838498031e-12
-8.86086643154186e-13
1.8333677125959e-12
-1.25313970871569e-12
2.22479478113344e-12
-1.78247039541509e-12
2.7207593720517e-12
-2.54603269422574e-12
3.34604005270626e-12
-3.63768869521176e-12
4.11938788152672e-12
-5.1520571247781e-12
5.03374706512643e-12
-7.11520424463367e-12
6.00132332160937e-12
-9.21414083711345e-12
6.76975019732972e-12
-1.02835842204415e-11
6.7700766908002e-12
-7.25987985704697e-12
5.26834030386361e-12
3.94987262610924e-12
1.97217447561732e-12
2.36104647320503e-11
2.83316071972639e-11
3.85021416060439e-13
2.74408754917037e-11
-1.07689057336098e-12
2.47947736818188e-11
-2.64871411843578e-12
5.71877382593776e-12
-3.54698199433383e-12
-6.06004593452598e-12
-3.77303173860908e-12
-9.88007686330632e-12
-3.58467553407991e-12
-9.35042310544176e-12
-3.20205989369834e-12
-7.51264760500093e-12
-2.7630814575292e-12
-5.63077382053759e-12
-2.33644654561692e-12
-4.10974411418903e-12
-1.95159368213706e-12
-2.97481930459961e-12
-1.61722931450162e-12
-2.15697262035801e-12
-1.33241358457948e-12
-1.57356254526149e-12
-1.09210497192441e-12
-1.15720294828414e-12
-8.89982011119485e-13
-8.57659272820202e-13
-7.19793195164569e-13
-6.39424993230905e-13
-5.75902415281967e-13
-4.78005158837173e-13
-4.53472617388491e-13
-3.56728889509819e-13
-3.48456224391023e-13
-2.64345842362765e-13
-2.57491690926272e-13
-1.9324913008587e-13
-1.77775772234374e-13
-1.38262266387161e-13
-1.06956176833971e-13
-9.58599137790287e-14
-4.30059809386437e-14
-6.36337075133961e-14
1.5836251239632e-14
-3.99261228810436e-14
7.11700722077019e-14
-2.36625695639199e-14
1.244752601274e-13
-1.41687233062283e-14
1.77178738686012e-13
-1.11436060431065e-14
2.30702732395017e-13
-1.45663789039293e-14
2.86520201113084e-13
-2.47465156656896e-14
3.46206859229002e-13
-4.23240145971574e-14
4.11509490061765e-13
-6.83736097789269e-14
4.84420751896772e-13
-1.04533227392032e-13
5.67264566179505e-13
-1.53182836795795e-13
6.62809987340282e-13
-2.17844476654759e-13
7.74379587404536e-13
-3.03703677561902e-13
9.05977841526859e-13
-4.18433250520286e-13
1.06238644693104e-12
-5.73318343305953e-13
1.24919412722619e-12
-7.85012704898755e-13
1.47261311034498e-12
-1.07801601633129e-12
1.73893302186956e-12
-1.48785474599322e-12
2.05319412700519e-12
-2.0649933472948e-12
2.41638050560959e-12
-2.87733359210397e-12
2.8198836365848e-12
-4.00915002648695e-12
3.23455893008445e-12
-5.53452439995551e-12
3.59284065565922e-12
-7.44107439606474e-12
3.76060970735429e-12
-9.34914891625506e-12
3.52655170860217e-12
-1.00160202568365e-11
2.64393012636029e-12
-6.34234915301371e-12
1.11225337304583e-12
5.51780741734315e-12
-3.32897426370795e-13
2.50899568199919e-11
2.80200801537714e-11
1.75435100494497e-12
2.57181464216029e-11
1.65634575719846e-12
2.49339967230383e-11
2.23325300805041e-13
7.19268457858996e-12
-1.166076335509e-12
-4.63141412724733e-12
-2.04193385123237e-12
-8.96653672454501e-12
-2.41478729944018e-12
-8.9410735789641e-12
-2.44975651512696e-12
-7.44208188416905e-12
-2.29806414879097e-12
-5.74758569322709e-12
-2.06160757434396e-12
-4.31191996189947e-12
-1.79986861456754e-12
-3.20280305106594e-12
-1.54432155805434e-12
-2.37924111362708e-12
-1.30966297069441e-12
-1.7753852598671e-12
-1.10119054347563e-12
-1.33325593848165e-12
-9.19241508825839e-13
-1.00758373066149e-12
-7.61784625640724e-13
-7.65231440143819e-13
-6.25848003251224e-13
-5.8264589730801e-13
-5.08265065480193e-13
-4.43348191582055e-13
-4.06034602884984e-13
-3.35922622302276e-13
-3.16458708915331e-13
-2.52457460682412e-13
-2.37149048863607e-13
-1.87467238301267e-13
-1.6603052183395e-13
-1.37111718925578e-13
-1.01255159081723e-13
-9.87577375865654e-14
-4.11833011089372e-14
-7.05379742434761e-14
1.56959119402354e-14
-5.12513894411245e-14
7.07976040084461e-14
-4.01276839052367e-14
1.25486351791195e-13
-3.68170110765673e-14
1.81124592718417e-13
-4.12976956649953e-14
2.39116542971432e-13
-5.39215065573914e-14
3.00949731310411e-13
-7.54135763845913e-14
3.6824767830707e-13
-1.06984439782286e-13
4.42819883716232e-13
-1.50458775462114e-13
5.26719272751098e-13
-2.08459769944639e-13
6.22287056077373e-13
-2.84797316996104e-13
7.32180589492093e-13
-3.84972047350045e-13
8.59343174139517e-13
-5.16941841384984e-13
1.00687315151593e-12
-6.92146343506406e-13
1.1776757629119e-12
-9.27044835329521e-13
1.3736992271773e-12
-1.24517947122428e-12
1.59453056915834e-12
-1.6797168600611e-12
1.83476955107906e-12
-2.27613403845839e-12
2.0795886019114e-12
-3.09291075992026e-12
2.2972839089286e-12
-4.19744958849559e-12
2.42799562957163e-12
-5.63568029117759e-12
2.36969714915738e-12
-7.35303272254518e-12
1.97280706396107e-12
-8.92220304510008e-12
1.07864953157615e-12
-9.09112319195272e-12
-3.10947461120094e-13
-4.92069049967292e-12
-1.71108731645492e-12
6.95121426106601e-12
-1.76122320650903e-12
2.51714465185121e-11
2.62779185504501e-11
2.35209813260118e-12
2.3396041015613e-11
3.07146297962637e-12
2.42529125015809e-11
1.87526715460215e-12
8.42647907689784e-12
3.34961388316798e-13
-3.05521464109421e-12
-8.52878653249075e-13
-7.74437610005345e-12
-1.54144041531384e-12
-8.21941504431757e-12
-1.839049997797e-12
-7.11230397793509e-12
-1.88517640171157e-12
-5.67001638268648e-12
-1.79064941269993e-12
-4.37559755668159e-12
-1.62795934475079e-12
-3.33515202653586e-12
-1.44062616335309e-12
-2.53668516692643e-12
-1.25267019822417e-12
-1.93386797200293e-12
-1.07616330218179e-12
-1.48067869477202e-12
-9.16166787288967e-13
-1.13886575305636e-12
-7.73865261728293e-13
-8.79168826424762e-13
-6.48452147967192e-13
-6.80027693778753e-13
-5.38210222699683e-13
-5.25871522528027e-13
-4.4110129063979e-13
-4.05605822369282e-13
-3.55075382509894e-13
-3.11328597097702e-13
-2.78187794376372e-13
-2.37448910512924e-13
-2.08654058345273e-13
-1.79965714076322e-13
-1.44848675800038e-13
-1.36087282675722e-13
-8.52766600116593e-14
-1.03815520874149e-13
-2.85505540356353e-14
-8.18439117803276e-14
2.66478350704364e-14
-6.93321721393696e-14
8.15933224777222e-14
-6.58896289185816e-14
1.37562987385163e-13
-7.14969056537545e-14
1.95858664858735e-13
-8.65319601248647e-14
2.57852645442031e-13
-1.11791099084418e-13
3.25013641145994e-13
-1.4858266575566e-13
3.98934367663072e-13
-1.98854885543615e-13
4.81366078612026e-13
-2.65389968811547e-13
5.74207296215644e-13
-3.52145008074105e-13
6.79467266470838e-13
-4.647296554802e-13
7.99113778104465e-13
-6.11060577022974e-13
9.34784956984647e-13
-8.02246016432981e-13
1.08720132817214e-12
-1.0538273962835e-12
1.25506956031889e-12
-1.387331735093e-12
1.43321442588298e-12
-1.83204392495585e-12
1.60937744218511e-12
-2.42635831636985e-12
1.75925998292875e-12
-3.21671847646745e-12
1.83885292296327e-12
-4.25082306248608e-12
1.77484955895018e-12
-5.54531085790493e-12
1.45550080134313e-12
-7.00715402058254e-12
7.41635890080194e-13
-8.18153807705251e-12
-4.70407605729373e-13
-7.85166721909041e-12
-2.02139091132364e-12
-3.34107631462413e-12
-3.19229758420322e-12
8.15187309182595e-12
-2.40508219977188e-12
2.44120746078461e-11
2.38895768772952e-11
2.41886784051383e-12
2.10042115266258e-11
3.49629009128963e-12
2.32091017892772e-11
2.57065906768399e-12
9.38456731617061e-12
1.11496114438157e-12
-1.56868768570889e-12
-1.3088713413584e-13
-6.46918640699454e-12
-9.41188908259681e-13
-7.38095283861032e-12
-1.37282527171869e-12
-6.65340590099265e-12
-1.53854663752871e-12
-5.47772849042685e-12
-1.54098222030623e-12
-4.34715472195074e-12
-1.45278968111465e-12
-3.39781044308206e-12
-1.32102635442406e-12
-2.64333172914585e-12
-1.17383444173986e-12
-2.05632551523939e-12
-1.02699994889152e-12
-1.60313761860029e-12
-8.8855536808479e-13
-1.25327680468862e-12
-7.6194642395123e-13
-9.82070050482857e-13
-6.48020138366089e-13
-7.70556599103445e-13
-5.46250373545672e-13
-6.04536926331119e-13
-4.55442245468547e-13
-4.73584855155913e-13
-3.74136599341922e-13
-3.70059908248406e-13
-3.00814760697665e-13
-2.88431486116945e-13
-2.33990494541681e-13
-2.24663958640689e-13
-1.72265092274173e-13
-1.75878883517769e-13
-1.14304742400192e-13
-1.40013333248567e-13
-5.885870426161e-14
-1.15678908259843e-13
-4.72048088155991e-15
-1.01990818895161e-13
4.92834029323444e-14
-9.85275588521539e-14
1.04328242455554e-13
-1.05271873923921e-13
1.61601664300474e-13
-1.22615638690539e-13
2.22344638735355e-13
-1.51409095762027e-13
2.87856866661015e-13
-1.93019980479714e-13
3.59508346784035e-13
-2.49466932026751e-13
4.38745936841423e-13
-3.2361088163087e-13
5.27048014309681e-13
-4.19437808976243e-13
6.25818983998421e-13
-5.42485037867229e-13
7.36181014659006e-13
-7.00384746895493e-13
8.58580068797213e-13
-9.03569380777399e-13
9.9207102272227e-13
-1.16618756247869e-12
1.13308771704496e-12
-1.50714480663433e-12
1.27344049231665e-12
-1.9511021077379e-12
1.39710817452004e-12
-2.52862420390118e-12
1.47558735664175e-12
-3.27367508109168e-12
1.46119139104204e-12
-4.21478036235957e-12
1.28025115054762e-12
-5.34260332099174e-12
8.28891538589574e-13
-6.53390210587521e-12
-5.92837240364205e-15
-7.32461446770503e-12
-1.27751729749851e-12
-6.55745198672058e-12
-2.74833015811939e-12
-1.84654608331705e-12
-3.65386167221521e-12
9.08207136436975e-12
-2.49910245701125e-12
2.32802579659255e-11
2.14038005688997e-11
2.19061029813924e-12
1.88370502754679e-11
3.32226046901902e-12
2.21057617586162e-11
2.65440347371642e-12
1.00794171495686e-11
1.40711219508025e-12
-2.95914427284535e-13
2.55978231721122e-13
-5.29393603468444e-12
-5.50181878912413e-13
-6.55177421308484e-12
-1.02652525466692e-12
-6.15488397168421e-12
-1.25397942942664e-12
-5.22874078294147e-12
-1.31788364774321e-12
-4.26223170237844e-12
-1.2833521616387e-12
-3.41175600004227e-12
-1.19539423858052e-12
-2.71108452035771e-12
-1.0826308077382e-12
-2.14923476239067e-12
-9.62277987472357e-13
-1.70396646272692e-12
-8.43979127176908e-13
-1.35236761762746e-12
-7.326406607811e-13
-1.0745035127609e-12
-6.30312278336216e-13
-8.54270191988309e-13
-5.37398308601685e-13
-6.79111354907156e-13
-4.53416066215702e-13
-5.39486614629632e-13
-3.77430571425148e-13
-4.28204986106981e-13
-3.08309767422753e-13
-3.39933531521087e-13
-2.44859062686924e-13
-2.70697103404399e-13
-1.85894271722404e-13
-2.17608199968744e-13
-1.30255283456288e-13
-1.78578629598933e-13
-7.68270047906344e-14
-1.52175871994211e-13
-2.4519906624069e-14
-1.3749095641401e-13
2.77307963334316e-14
-1.34077704292333e-13
8.09899289227688e-14
-1.41920729056515e-13
1.36329024658017e-13
-1.61419543294502e-13
1.94852689553521e-13
-1.93457904482412e-13
2.57687920182936e-13
-2.39427234817864e-13
3.25990461651277e-13
-3.0137536206573e-13
4.00913462576547e-13
-3.82160541866396e-13
4.83546197522388e-13
-4.85705767944928e-13
5.74763201095378e-13
-6.17331635800743e-13
6.7498405918417e-13
-7.84216742617448e-13
7.83710783647232e-13
-9.95874087744533e-13
8.98793723670289e-13
-1.26480074219408e-12
1.01520193522595e-12
-1.60702017287938e-12
1.12311785825461e-12
-2.04240668576318e-12
1.20506940739139e-12
-2.59387159141339e-12
1.23204529325934e-12
-3.28384534755615e-12
1.15837455549007e-12
-4.12420260015795e-12
9.17944239521346e-13
-5.08517546168775e-12
4.24204933975145e-13
-6.02307757740119e-12
-4.04116571342066e-13
-6.47905261628592e-12
-1.57911811169971e-12
-5.36477634927816e-12
-2.8409950100647e-12
-5.66042819772584e-13
-3.49084230518555e-12
9.75140851452403e-12
-2.28057546508486e-12
2.20879188447405e-11
1.91334196457647e-11
1.84116677813636e-12
1.70147249503247e-11
2.86781397007239e-12
2.11009375165961e-11
2.41881492662298e-12
1.05487234564036e-11
1.4184011890717e-12
7.23534222780919e-13
4.31715927084793e-13
-4.28936287057345e-12
-3.02842491820166e-13
-5.80027705982297e-12
-7.70087373403916e-13
-5.67143448628928e-12
-1.02099726986695e-12
-4.96219221490551e-12
-1.12087387743113e-12
-4.14716710827576e-12
-1.12383132076485e-12
-3.39399108142029e-12
-1.06979966862925e-12
-2.75064741026045e-12
-9.85646181251644e-13
-2.21923403200677e-12
-8.88492933910463e-13
-1.78726507666573e-12
-7.88603693787706e-13
-1.43869203909144e-12
-6.91717676892246e-13
-1.15810493465525e-12
-6.00707806636119e-13
-9.32265194873179e-13
-5.16683785986953e-13
-7.50376680332474e-13
-4.39739828086684e-13
-6.03914216064359e-13
-3.69387743820681e-13
-4.86265858219239e-13
-3.04846991831227e-13
-3.92390995040214e-13
-2.45191024656658e-13
-3.18458627945296e-13
-1.89440882285489e-13
-2.61634202731228e-13
-1.36602098374104e-13
-2.1984458026815e-13
-8.56969125264441e-14
-1.9164204883713e-13
-3.57556066993288e-14
-1.76109151222874e-13
1.41763464014799e-14
-1.72786292475636e-13
6.50519344407036e-14
-1.81656822390344e-13
1.17826396757428e-13
-2.03123988718255e-13
1.73465206453776e-13
-2.38082713340225e-13
2.32930752746828e-13
-2.8792197215444e-13
2.97171474688574e-13
-3.54676825810707e-13
3.67070693914451e-13
-4.41139754671187e-13
4.4337041166898e-13
-5.51093481927211e-13
5.26497629336866e-13
-6.89543431032192e-13
6.16292024152382e-13
-8.63080149713259e-13
7.11551542103296e-13
-1.08017512863693e-12
8.09306970037001e-13
-1.35155798436359e-12
9.03689278406609e-13
-1.69035156785284e-12
9.8426085595697e-13
-2.11186340831137e-12
1.03364776750371e-12
-2.6320696708944e-12
1.02460709258151e-12
-3.26353849715967e-12
9.16604335089245e-13
-4.00486286965288e-12
6.5466630956845e-13
-4.81184684098903e-12
1.72532023664375e-13
-5.52951313134401e-12
-5.80881617091544e-13
-5.71411863804989e-12
-1.58748145377181e-12
-4.34632446917214e-12
-2.59885776005915e-12
4.57981295884982e-13
-3.02953000418959e-12
1.01954046923503e-11
-1.92835026273137e-12
2.09988263485713e-11
1.72114197876306e-11
1.476028700642e-12
1.55528279254845e-11
2.33926215741846e-12
2.02531846698955e-11
2.06096480265063e-12
1.08410814684004e-11
1.29471265921525e-12
1.50282241008904e-12
4.88105666633866e-13
-3.47064486805526e-12
-1.47599903312707e-13
-5.15324744686295e-12
-5.77750624246245e-13
-5.23057943244475e-12
-8.28872829682412e-13
-4.700846587154e-12
-9.47391697930564e-13
-4.01881186006816e-12
-9.75811848711587e-13
-3.35606483278589e-12
-9.47764168243648e-13
-2.76948762291e-12
-8.87188942962026e-13
-2.27088380412211e-12
-8.10177942923339e-13
-1.85562350483521e-12
-7.26928871584857e-13
-1.51355486789222e-12
-6.43553204022729e-13
-1.23335345674079e-12
-5.63427538399663e-13
-1.00451480923565e-12
-4.88174248678121e-13
-8.17993662615277e-13
-4.18340250270167e-13
-6.66339047969602e-13
-3.53808554017351e-13
-5.43599834436808e-13
-2.9410595129673e-13
-4.45091022064008e-13
-2.38542083652541e-13
-3.6719726841855e-13
-1.86334841835906e-13
-3.07176067883461e-13
-1.36651676935028e-13
-2.63004228938707e-13
-8.86442765382231e-14
-2.33251129807287e-13
-4.14636112745621e-14
-2.16999600575333e-13
5.73639141232646e-15
-2.13788917305996e-13
5.37947395808731e-14
-2.2359580651275e-13
1.03554198271691e-13
-2.46828630106732e-13
1.55839056071974e-13
-2.84364398164713e-13
2.11459602623008e-13
-3.37579279651849e-13
2.71168639173426e-13
-4.08451521936855e-13
3.35610079063651e-13
-4.99664897528431e-13
4.05218741602937e-13
-6.14793416500905e-13
4.80051645157591e-13
-7.58464738228231e-13
5.59493531508156e-13
-9.36598075677141e-13
6.41839721746148e-13
-1.15657427603795e-12
7.23613717835661e-13
-1.42735227596817e-12
7.9858535499676e-13
-1.75930138109739e-12
8.56390692457616e-13
-2.16359644553023e-12
8.80708395799213e-13
-2.65025976980399e-12
8.47262752734211e-13
-3.22391103012259e-12
7.21922785177446e-13
-3.87329936433585e-12
4.615316375021e-13
-4.54521350138976e-12
1.90300175696414e-14
-5.08077166943682e-12
-6.31862445687405e-13
-5.05695272125301e-12
-1.45358900993495e-12
-3.51808911303788e-12
-2.22591669536118e-12
1.23744515400396e-12
-2.48439778843656e-12
1.04616008725943e-11
-1.55357749269665e-12
2.00747365409805e-11
1.56609818097384e-11
1.14807413972011e-12
1.4413806231266e-11
1.84563382613751e-12
1.95644494683128e-11
1.69160538160996e-12
1.10025851631759e-11
1.12356597635373e-12
2.07764004381369e-12
4.83923568018805e-13
-2.82487146483283e-12
-4.90974218011605e-14
-4.61468641000152e-12
-4.30460645674424e-13
-4.84415850150565e-12
-6.68736107388899e-13
-4.4578960592374e-12
-7.94490525218462e-13
-3.88869649108079e-12
-8.39563956425364e-13
-3.30690639371806e-12
-8.31197274392188e-13
-2.77402578988437e-12
-7.89937495192026e-13
-2.30856353642691e-12
-7.30318677189567e-13
-1.91190705790939e-12
-6.62027868510136e-13
-1.57875384498296e-12
-5.91196654941461e-13
-1.30133104781371e-12
-5.2146043001704e-13
-1.07162991227544e-12
-4.54788064596215e-13
-8.82267390332884e-13
-3.92059834460025e-13
-7.26879946650307e-13
-3.33462645996464e-13
-6.00206321857745e-13
-2.78782918947774e-13
-4.97962160348315e-13
-2.27544320588885e-13
-4.16792309051089e-13
-1.79142346441091e-13
-3.54083547625506e-13
-1.32892940689446e-13
-3.07891109237492e-13
-8.80771888288191e-14
-2.7682015308043e-13
-4.39641926789327e-14
-2.59966073798344e-13
1.84756780598052e-16
-2.56877042973908e-13
4.50984453066593e-14
-2.67519995134567e-13
9.15061785389837e-14
-2.92305820594559e-13
1.40101837240202e-13
-3.32076734041194e-13
1.91548435155153e-13
-3.88178857486747e-13
2.46419917986204e-13
-4.62501593378166e-13
3.05145604756051e-13
-5.57585421464065e-13
3.67904271633533e-13
-6.76753871625945e-13
4.34451119867978e-13
-8.24211600890028e-13
5.03836887620545e-13
-1.00517373705817e-12
5.74018530712022e-13
-1.22592741779632e-12
6.41265183232113e-13
-1.49374415187225e-12
6.99333741837236e-13
-1.81648319699082e-12
7.38389676709683e-13
-2.20172928846313e-12
7.43699899796507e-13
-2.65461060709292e-12
6.94438565364816e-13
-3.1736614292673e-12
5.62990906799486e-13
-3.740853152585e-12
3.17074077731462e-13
-4.2983173342818e-12
-7.41947753995659e-14
-4.68857017834468e-12
-6.18802081568401e-13
-4.51144181596758e-12
-1.26881920259745e-12
-2.86703981527413e-12
-1.83809047824763e-12
1.80819423542713e-12
-1.97070493931972e-12
1.05960621361925e-11
-1.21348495157445e-12
1.93187390903835e-11
1.44471427992438e-11
8.76682422353486e-13
1.35416118395767e-11
1.43046516716107e-12
1.90137361458845e-11
1.36170640679023e-12
1.10733449095759e-11
9.50535936972157e-13
2.49040379087469e-12
4.53199467896134e-13
-2.32634728161834e-12
1.51566234540906e-14
-4.17586744932553e-12
-3.14971482469089e-13
-4.51361091881244e-12
-5.3373877392997e-13
-4.23900356659371e-12
-6.59376554640935e-13
-3.76318414600837e-12
-7.14687702229066e-13
-3.25194938996732e-12
-7.21015882246826e-13
-2.76827196470027e-12
-6.95478146817596e-13
-2.33489665874977e-12
-6.50804978818899e-13
-1.95759656052529e-12
-5.958977349108e-13
-1.63490001786667e-12
-5.36657940164465e-13
-1.36202983071855e-12
-4.76789860643983e-13
-1.13317275438018e-12
-4.18457499158341e-13
-9.4248191426553e-13
-3.62778574054167e-13
-7.84638174468635e-13
-3.10181970560503e-13
-6.55065744136385e-13
-2.60660548421369e-13
-5.49916285020326e-13
-2.13927606951101e-13
-4.66111844418305e-13
-1.69539298359981e-13
-4.0119687200668e-13
-1.26950128858939e-13
-3.53328080486019e-13
-8.55655861207313e-14
-3.21159796978435e-13
-4.47656022224021e-14
-3.03813335434255e-13
-3.91920991698554e-15
-3.0084977250534e-13
3.75976087729211e-14
-3.12228862953099e-13
8.03986953855745e-14
-3.38352572839026e-13
1.25059534218052e-13
-3.80025832326154e-13
1.72099984906302e-13
-4.38539914971069e-13
2.21937036068141e-13
-5.15682395782312e-13
2.74815392030163e-13
-6.13821769749593e-13
3.3070146874696e-13
-7.36003894672338e-13
3.89113112476783e-13
-8.85985663664884e-13
4.48870140139001e-13
-1.06828410965458e-12
5.0773431622608e-13
-1.28813020737846e-12
5.61916002463297e-13
-1.55124416646779e-12