/*--------------------------------*- C++ -*----------------------------------*\
  =========                 |
  \\      /  F ield         | OpenFOAM: The Open Source CFD Toolbox
   \\    /   O peration     | Website:  https://openfoam.org
    \\  /    A nd           | Version:  10
     \\/     M anipulation  |
\*---------------------------------------------------------------------------*/
FoamFile
{
    format      ascii;
    class       volScalarField;
    location    "8.4";
    object      rho;
}
// * * * * * * * * * * * * * * * * * * * * * * * * * * * * * * * * * * * * * //

dimensions      [1 -3 0 0 0 0 0];

internalField   nonuniform List<scalar> 
2500
(
1.14587801636637
1.14588655646824
1.14592008064343
1.14594756235272
1.14596609154849
1.14597772902824
1.14598478879358
1.14598896467946
1.14599136569331
1.14599269806013
1.1459934159279
1.1459937871699
1.14599397205414
1.14599406281399
1.1459941065099
1.14599412830094
1.14599413811741
1.14599414388469
1.14599414803104
1.14599415054807
1.14599415243162
1.14599415393051
1.1459941551058
1.14599415582723
1.14599415653595
1.14599415707354
1.14599415723291
1.14599415719688
1.1459941569152
1.14599415632623
1.14599415529716
1.1459941533121
1.1459941503487
1.14599414499097
1.14599413449193
1.14599411282648
1.14599406745635
1.14599397381147
1.14599378078046
1.14599340106904
1.14599267526217
1.14599133385644
1.1459889361278
1.14598478109609
1.14597775600737
1.14596616594911
1.14594762483635
1.14591999013042
1.14588631632821
1.14587834181244
1.14865761496912
1.14872656514713
1.14882569166872
1.14890416452274
1.14895760081383
1.14899176921075
1.14901293911984
1.14902573829886
1.14903326673062
1.1490375533418
1.14903991091839
1.14904115957034
1.14904179629005
1.1490421099835
1.14904225946709
1.14904232892866
1.1490423599724
1.14904237420929
1.14904238121823
1.1490423847299
1.14904238677607
1.14904238816938
1.14904238918308
1.14904238985459
1.14904239043219
1.14904239087387
1.14904239107011
1.1490423910967
1.1490423909097
1.14904239033007
1.14904238894501
1.14904238575309
1.14904237887518
1.14904236367265
1.14904233005773
1.14904225645308
1.14904209901097
1.14904177233225
1.14904111527216
1.14903984192579
1.14903745947375
1.1490331559215
1.1490256388506
1.14901289809144
1.14899183459606
1.1489577671837
1.14890423620899
1.14882524209255
1.14872552545406
1.14865916554488
1.15159370386209
1.15172717779538
1.15187510836359
1.15198763719987
1.15206337094763
1.15211153390636
1.15214128378678
1.15215924412074
1.15216980826629
1.15217583219542
1.15217915124009
1.15218091392861
1.15218181555281
1.1521822602216
1.15218247186783
1.15218256936143
1.15218261270476
1.15218263175301
1.15218264026617
1.15218264414188
1.15218264610317
1.15218264728323
1.15218264808556
1.15218264862223
1.1521826490501
1.15218264938036
1.15218264956135
1.15218264962937
1.15218264952671
1.15218264900096
1.15218264750308
1.15218264372037
1.15218263472969
1.15218261400047
1.15218256720999
1.15218246375268
1.1521822415784
1.15218178004233
1.15218085358992
1.15217906015323
1.15217570976569
1.15216966555901
1.15215911444068
1.1521412227745
1.15211159299671
1.15206350455933
1.15198750812945
1.15187400034645
1.15172472347739
1.15159390380282
1.15436079740234
1.15453625656161
1.15470219427087
1.15482333478163
1.15490282894225
1.15495231141933
1.15498228381277
1.15500006537305
1.15501036774337
1.15501616744786
1.15501932749031
1.15502098963537
1.1550218326305
1.15502224499077
1.15502243964335
1.15502252842418
1.15502256750753
1.15502258432846
1.15502259154713
1.15502259467403
1.1550225961476
1.15502259698126
1.15502259753447
1.15502259790634
1.15502259819099
1.15502259841647
1.15502259856352
1.15502259865032
1.15502259865474
1.15502259834339
1.15502259721671
1.1550225941406
1.15502258640946
1.15502256815528
1.15502252635935
1.15502243282131
1.1550222298023
1.15502180384957
1.15502094065913
1.15501925249244
1.15501606422047
1.15501024319506
1.1549999435984
1.15498220598551
1.15495230587104
1.15490280265424
1.15482284752379
1.15470031267154
1.15453219296527
1.154357742213
1.15672832988795
1.15691450670362
1.1570727122011
1.1571837373172
1.15725463622756
1.15729774362126
1.15732330626375
1.15733819373246
1.15734668672069
1.15735140756812
1.15735395315369
1.15735528074858
1.1573559493372
1.15735627436718
1.15735642690465
1.15735649602358
1.15735652622699
1.15735653904014
1.15735654438315
1.15735654659848
1.15735654757395
1.15735654809288
1.15735654843171
1.15735654865884
1.15735654882693
1.15735654896572
1.15735654907255
1.15735654915854
1.15735654921481
1.15735654908419
1.15735654837897
1.15735654621372
1.15735654047803
1.15735652667732
1.15735649475786
1.15735642266225
1.15735626488196
1.15735593120781
1.15735524954325
1.15735390448849
1.15735133886437
1.15734660085695
1.15733810423882
1.15732323598594
1.15729769499955
1.15725448327364
1.15718299372534
1.1570703260951
1.15690926338106
1.15672197394139
1.15858834357629
1.15875850357312
1.15889199106065
1.15898227555618
1.15903836773092
1.15907166553576
1.15909099140124
1.15910204094515
1.15910825029648
1.15911166099999
1.15911348317318
1.15911442672251
1.15911489928779
1.15911512800352
1.15911523491829
1.15911528315187
1.15911530410838
1.15911531289614
1.15911531647214
1.15911531789066
1.15911531846745
1.15911531874931
1.15911531893043
1.15911531905102
1.1591153191365
1.1591153192124
1.15911531928302
1.15911531935543
1.15911531941618
1.15911531939724
1.15911531903312
1.15911531767373
1.15911531384439
1.15911530446423
1.1591152825959
1.15911523283958
1.15911512324931
1.15911489005875
1.1591144105769
1.1591134574726
1.15911162376481
1.15910820222822
1.15910198829075
1.15909094367748
1.15907160896059
1.15903816883645
1.15898146488588
1.15888951794847
1.15875288275263
1.15857992338818
1.15994139156778
1.16007983524895
1.16018173512061
1.16024833613007
1.16028861407356
1.16031196324088
1.16032522973583
1.16033267879862
1.16033680467128
1.16033904603753
1.16034023371822
1.16034084508535
1.16034114999658
1.16034129712033
1.16034136572138
1.16034139657946
1.16034140992518
1.16034141546411
1.16034141766646
1.16034141849933
1.16034141880497
1.16034141893345
1.16034141901346
1.16034141906641
1.16034141910055
1.16034141913608
1.16034141917893
1.16034141923355
1.16034141929056
1.16034141931573
1.16034141915821
1.16034141839345
1.1603414160475
1.16034141018964
1.16034139643639
1.16034136495541
1.16034129527791
1.16034114632807
1.16034083851398
1.16034022298551
1.16033903004249
1.16033678347158
1.1603326550448
1.1603252062723
1.16031192165033
1.16028843617736
1.16024761876646
1.16017953679115
1.16007462823479
1.15993254266745
1.16085891316434
1.16096120019156
1.16103259760324
1.16107780615539
1.16110444337911
1.16111953057461
1.16112792571662
1.16113255685996
1.16113508642389
1.16113644647544
1.16113716191992
1.16113752839999
1.16113771060733
1.16113779835413
1.1611378392102
1.16113785755339
1.16113786545635
1.16113786870466
1.16113786996613
1.16113787041834
1.16113787056286
1.16113787060602
1.16113787063013
1.16113787064639
1.16113787065313
1.1611378706658
1.16113787068968
1.16113787072718
1.16113787077326
1.16113787080764
1.16113787075867
1.16113787036884
1.16113786903434
1.16113786562966
1.16113785757898
1.16113783905826
1.1611377979181
1.16113770968148
1.1611375266497
1.16113715891712
1.16113644181879
1.16113508023694
1.16113255053994
1.16112792005239
1.16111951006451
1.16110431740767
1.16107726267812
1.16103087234368
1.16095692205392
1.1608509656577
1.16144224668567
1.16151180977028
1.16155821125337
1.16158674155545
1.16160313670553
1.16161221577777
1.16161716571808
1.16161984945527
1.16162129566146
1.16162206568906
1.16162246811121
1.16162267341421
1.16162277525957
1.16162282425421
1.16162284705325
1.16162285727787
1.16162286166845
1.16162286345595
1.16162286413348
1.16162286436262
1.1616228644188
1.16162286442107
1.16162286442134
1.16162286442163
1.16162286441833
1.16162286442015
1.16162286443251
1.1616228644561
1.16162286448913
1.16162286451829
1.16162286451329
1.16162286433275
1.16162286362498
1.16162286176682
1.16162285733823
1.16162284710709
1.16162282432429
1.16162277535596
1.16162267351621
1.16162246817615
1.16162206570713
1.16162129594693
1.16161985112994
1.16161716956408
1.16161221183345
1.1616030635016
1.16158637908974
1.16155699244549
1.16150863481706
1.1614359181169
1.1617917000866
1.16183568215931
1.16186388360846
1.16188075688255
1.16189022445214
1.16189535416963
1.16189809576942
1.16189955716595
1.16190033437001
1.16190074435945
1.16190095735021
1.16190106564677
1.16190111928939
1.16190114508659
1.16190115709183
1.16190116247276
1.1619011647764
1.16190116570517
1.16190116604859
1.16190116615257
1.16190116616671
1.16190116615919
1.16190116615216
1.16190116614654
1.16190116614144
1.16190116614096
1.16190116614666
1.16190116616056
1.16190116618218
1.1619011662042
1.16190116621206
1.16190116613484
1.1619011657825
1.16190116482366
1.16190116251776
1.16190115717164
1.1619011452493
1.16190111959664
1.16190106616547
1.16190095816029
1.16190074559734
1.16190033643583
1.16189956110471
1.16189810275298
1.16189535921189
1.16189019016831
1.16188054071068
1.1618630977782
1.16183352480294
1.16178713297831
1.1619898309505
1.162015885004
1.16203202016683
1.16204143244714
1.16204659496891
1.16204933390132
1.16205076957998
1.16205152218483
1.16205191728931
1.16205212385268
1.1620522305752
1.16205228468769
1.16205231146747
1.16205232434944
1.16205233034788
1.16205233303606
1.16205233418356
1.16205233464147
1.16205233480505
1.16205233484701
1.16205233484705
1.16205233483958
1.16205233483226
1.16205233482632
1.16205233482207
1.16205233482081
1.16205233482328
1.16205233483129
1.1620523348444
1.16205233485912
1.1620523348683
1.16205233483819
1.16205233467193
1.16205233420144
1.16205233305845
1.16205233040057
1.16205232446982
1.16205231170776
1.16205228511212
1.16205223126956
1.16205212496504
1.16205191918882
1.16205152577437
1.16205077617779
1.16204934177664
1.16204658358293
1.16204131624598
1.16203155296906
1.16201452872239
1.16198679961872
1.16209656577555
1.16211111684574
1.16211985508067
1.16212483376989
1.16212750619554
1.16212889560445
1.16212961023693
1.16212997874023
1.1621301697383
1.16213026872358
1.16213031960313
1.1621303453411
1.16213035807377
1.1621303642032
1.16213036706025
1.1621303683408
1.16213036888585
1.162130369101
1.16213036917426
1.16213036918948
1.16213036918662
1.16213036918083
1.16213036917536
1.16213036917093
1.16213036916802
1.16213036916684
1.16213036916788
1.16213036917231
1.16213036917974
1.16213036918864
1.16213036919533
1.16213036918486
1.16213036911029
1.16213036888963
1.16213036834772
1.16213036708442
1.16213036426613
1.16213035820646
1.16213034558349
1.16213032001315
1.16213026941155
1.1621301709844
1.16212998123573
1.16212961515515
1.16212890285867
1.16212750557212
1.16212477741567
1.16211959693365
1.1621103213528
1.16209469543015
1.16215138796244
1.162159089753
1.16216359006332
1.16216609864159
1.16216741790497
1.16216809057762
1.16216843023805
1.16216860256118
1.16216869074936
1.16216873606115
1.16216875923884
1.16216877094074
1.16216877673
1.16216877952015
1.16216878082246
1.16216878140636
1.16216878165416
1.16216878175084
1.1621687817818
1.16216878178654
1.162168781784
1.16216878178021
1.16216878177673
1.16216878177393
1.16216878177216
1.16216878177134
1.16216878177177
1.16216878177409
1.16216878177806
1.16216878178302
1.1621687817872
1.1621687817841
1.162168781752
1.16216878165266
1.16216878140592
1.16216878082951
1.1621687795448
1.16216877678696
1.16216877104945
1.16216875943035
1.16216873640346
1.16216869142794
1.16216860404917
1.16216843342062
1.16216809595661
1.16216742090617
1.16216607418445
1.16216345669037
1.16215865149437
1.16215030637663
1.16217831681772
1.16218219725474
1.16218441016679
1.16218561888385
1.16218624236706
1.1621865543926
1.16218670914455
1.16218678640585
1.16218682544728
1.16218684533641
1.16218685546261
1.16218686056676
1.16218686309297
1.16218686431232
1.16218686488238
1.16218686513809
1.16218686524626
1.16218686528791
1.16218686530029
1.16218686530142
1.16218686529978
1.16218686529756
1.16218686529557
1.16218686529398
1.16218686529299
1.1621868652925
1.16218686529268
1.16218686529383
1.16218686529584
1.16218686529842
1.16218686530069
1.16218686529996
1.16218686528671
1.16218686524367
1.1621868651354
1.16218686488203
1.16218686431821
1.16218686311069
1.1621868606038
1.16218685553284
1.16218684547667
1.16218682576817
1.16218678720166
1.16218671100566
1.16218655788017
1.16218624566848
1.16218560962719
1.16218434543368
1.16218196917519
1.16217772677408
1.1621909988411
1.16219286699838
1.1621939095438
1.16219446836955
1.16219475141084
1.16219489055263
1.1621949583689
1.16219499169456
1.16219500832287
1.16219501672205
1.16219502097901
1.1621950231218
1.1621950241831
1.16219502469628
1.16219502493664
1.16219502504452
1.16219502508999
1.16219502510721
1.16219502511197
1.16219502511208
1.1621950251111
1.1621950251099
1.16219502510884
1.162195025108
1.16219502510749
1.16219502510722
1.16219502510729
1.16219502510784
1.1621950251088
1.16219502511007
1.16219502511123
1.16219502511116
1.16219502510585
1.16219502508781
1.16219502504188
1.16219502493426
1.16219502469527
1.16219502418495
1.16219502312851
1.16219502099567
1.16219501676669
1.16219500845614
1.16219499208525
1.16219495937435
1.1621948926036
1.16219475390207
1.16219446553652
1.16219387992706
1.16219275433591
1.16219069354776
1.16219673529976
1.1621975975496
1.16219806956319
1.16219831820331
1.16219844199443
1.16219850182107
1.16219853049187
1.16219854436285
1.16219855119709
1.16219855461984
1.16219855634691
1.16219855721524
1.16219855764573
1.16219855785431
1.16219855795219
1.16219855799614
1.1621985580146
1.16219855802145
1.1621985580232
1.1621985580231
1.16219855802256
1.16219855802195
1.16219855802142
1.16219855802101
1.16219855802075
1.16219855802061
1.16219855802063
1.16219855802088
1.16219855802131
1.1621985580219
1.16219855802246
1.16219855802251
1.16219855802044
1.16219855801311
1.16219855799422
1.16219855794993
1.16219855785182
1.16219855764305
1.16219855721239
1.16219855634526
1.16219855462749
1.16219855124506
1.16219854454143
1.16219853100081
1.16219850293767
1.16219844357501
1.16219831770386
1.16219805676079
1.16219754451155
1.16219658480751
1.16219922836081
1.16219961102104
1.16219981694514
1.16219992368941
1.16219997598607
1.16220000085388
1.16220001257868
1.16220001816488
1.16220002088275
1.16220002223231
1.16220002291031
1.16220002325083
1.16220002341985
1.16220002350191
1.1622000235405
1.16220002355783
1.16220002356507
1.1622000235677
1.16220002356831
1.16220002356821
1.16220002356793
1.16220002356764
1.16220002356738
1.16220002356718
1.16220002356705
1.16220002356698
1.16220002356699
1.16220002356709
1.16220002356727
1.16220002356753
1.16220002356778
1.16220002356783
1.16220002356703
1.16220002356414
1.16220002355659
1.16220002353889
1.16220002349979
1.16220002341693
1.16220002324667
1.16220002290499
1.16220002222922
1.16220002089683
1.16220001824162
1.16220001282244
1.16220000142408
1.1621999768839
1.16219992384935
1.16219981171095
1.16219958714004
1.16219915741207
1.16220026618536
1.16220042989993
1.16220051667339
1.16220056099363
1.1622005823832
1.1622005923991
1.162200597048
1.16220059922994
1.16220060027828
1.16220060079438
1.16220060105251
1.16220060118203
1.16220060124639
1.1622006012777
1.16220060129245
1.16220060129906
1.16220060130181
1.16220060130278
1.16220060130298
1.1622006013029
1.16220060130277
1.16220060130263
1.16220060130251
1.16220060130241
1.16220060130235
1.16220060130231
1.1622006013023
1.16220060130234
1.16220060130241
1.16220060130251
1.16220060130262
1.16220060130264
1.16220060130234
1.16220060130123
1.1622006012983
1.16220060129142
1.16220060127627
1.16220060124429
1.16220060117888
1.1622006010481
1.16220060079003
1.16220060028084
1.16220059926113
1.16220059715926
1.1622005926747
1.1622005828532
1.16220056123406
1.1622005146502
1.16220041958366
1.1622002340889
1.16220067495499
1.16220074263652
1.16220077802943
1.16220079586293
1.16220080435
1.16220080826685
1.16220081005774
1.16220081088604
1.16220081127906
1.16220081147085
1.16220081156634
1.16220081161419
1.16220081163799
1.16220081164958
1.16220081165504
1.16220081165749
1.16220081165849
1.16220081165882
1.16220081165888
1.16220081165883
1.16220081165876
1.16220081165869
1.16220081165863
1.16220081165858
1.16220081165855
1.16220081165852
1.16220081165851
1.16220081165852
1.16220081165854
1.16220081165858
1.16220081165862
1.16220081165863
1.16220081165851
1.1622008116581
1.16220081165699
1.16220081165439
1.16220081164868
1.16220081163668
1.16220081161223
1.16220081156353
1.16220081146767
1.16220081127852
1.16220081089804
1.16220081010636
1.16220080839373
1.16220080458044
1.16220079603666
1.16220077729182
1.16220073834913
1.16220066098091
1.16220082111101
1.16220084820518
1.16220086220496
1.16220086917189
1.16220087244468
1.16220087393456
1.16220087460602
1.16220087491215
1.16220087505559
1.16220087512494
1.1622008751593
1.16220087517647
1.16220087518501
1.16220087518916
1.16220087519111
1.16220087519197
1.16220087519231
1.16220087519241
1.16220087519242
1.16220087519238
1.16220087519234
1.16220087519231
1.16220087519227
1.16220087519224
1.16220087519222
1.16220087519221
1.16220087519219
1.16220087519219
1.16220087519219
1.1622008751922
1.16220087519221
1.16220087519221
1.16220087519217
1.16220087519202
1.16220087519162
1.16220087519067
1.16220087518858
1.1622008751842
1.16220087517531
1.16220087515766
1.16220087512301
1.16220087505461
1.16220087491646
1.16220087462639
1.16220087399043
1.16220087255156
1.16220086927229
1.16220086195267
1.16220084648673
1.16220081524057
1.16220086115527
1.16220087167805
1.16220087705754
1.1622008797043
1.16220088093274
1.16220088148479
1.16220088173016
1.16220088184044
1.16220088189143
1.16220088191584
1.16220088192784
1.16220088193381
1.16220088193676
1.16220088193819
1.16220088193884
1.16220088193912
1.16220088193922
1.16220088193923
1.16220088193922
1.16220088193919
1.16220088193917
1.16220088193914
1.16220088193912
1.1622008819391
1.16220088193908
1.16220088193907
1.16220088193905
1.16220088193905
1.16220088193904
1.16220088193904
1.16220088193904
1.16220088193904
1.16220088193902
1.16220088193897
1.16220088193883
1.1622008819385
1.16220088193777
1.16220088193623
1.1622008819331
1.16220088192689
1.16220088191471
1.16220088189064
1.16220088184179
1.16220088173829
1.16220088150834
1.1622008809799
1.16220087975557
1.16220087697739
1.16220087101224
1.1622008587701
1.16220085962
1.16220086359175
1.16220086560282
1.16220086658196
1.16220086703134
1.16220086723081
1.16220086731827
1.162200867357
1.16220086737464
1.16220086738297
1.16220086738701
1.16220086738899
1.16220086738995
1.1622008673904
1.16220086739059
1.16220086739066
1.16220086739067
1.16220086739066
1.16220086739063
1.16220086739061
1.16220086739059
1.16220086739057
1.16220086739055
1.16220086739054
1.16220086739052
1.16220086739051
1.16220086739049
1.16220086739048
1.16220086739047
1.16220086739047
1.16220086739046
1.16220086739046
1.16220086739046
1.16220086739044
1.1622008673904
1.1622008673903
1.16220086739006
1.16220086738956
1.16220086738851
1.16220086738641
1.16220086738227
1.16220086737405
1.16220086735725
1.16220086732128
1.16220086724026
1.16220086705117
1.16220086660595
1.16220086557959
1.16220086334179
1.16220085868068
1.16220084225627
1.16220084371544
1.1622008444478
1.16220084480087
1.1622008449612
1.16220084503151
1.1622008450619
1.16220084507512
1.16220084508102
1.16220084508374
1.16220084508502
1.16220084508562
1.16220084508589
1.162200845086
1.16220084508603
1.16220084508602
1.162200845086
1.16220084508598
1.16220084508596
1.16220084508594
1.16220084508592
1.1622008450859
1.16220084508588
1.16220084508587
1.16220084508585
1.16220084508584
1.16220084508583
1.16220084508582
1.16220084508581
1.1622008450858
1.16220084508579
1.16220084508579
1.16220084508579
1.16220084508579
1.16220084508578
1.16220084508576
1.1622008450857
1.16220084508556
1.16220084508524
1.16220084508458
1.16220084508325
1.16220084508056
1.16220084507498
1.16220084506284
1.16220084503504
1.16220084496908
1.16220084481128
1.16220084444182
1.16220084362424
1.16220084189695
1.16220081902922
1.16220081955173
1.16220081981173
1.16220081993586
1.16220081999163
1.16220082001577
1.16220082002602
1.16220082003037
1.16220082003224
1.16220082003306
1.1622008200334
1.16220082003354
1.16220082003358
1.16220082003357
1.16220082003355
1.16220082003352
1.16220082003349
1.16220082003346
1.16220082003344
1.16220082003341
1.1622008200334
1.16220082003338
1.16220082003336
1.16220082003335
1.16220082003333
1.16220082003332
1.16220082003331
1.1622008200333
1.16220082003329
1.16220082003328
1.16220082003327
1.16220082003327
1.16220082003327
1.16220082003327
1.16220082003328
1.16220082003329
1.16220082003329
1.16220082003327
1.1622008200332
1.16220082003304
1.16220082003266
1.16220082003185
1.16220082003009
1.16220082002615
1.1622008200169
1.16220081999451
1.16220081994
1.16220081981038
1.16220081951922
1.16220081889536
1.16220079368556
1.16220079386814
1.1622007939581
1.16220079400057
1.16220079401942
1.16220079402744
1.16220079403076
1.1622007940321
1.16220079403262
1.16220079403281
1.16220079403285
1.16220079403284
1.1622007940328
1.16220079403276
1.16220079403272
1.16220079403268
1.16220079403265
1.16220079403262
1.1622007940326
1.16220079403258
1.16220079403256
1.16220079403254
1.16220079403253
1.16220079403251
1.1622007940325
1.16220079403248
1.16220079403247
1.16220079403246
1.16220079403245
1.16220079403244
1.16220079403244
1.16220079403243
1.16220079403244
1.16220079403244
1.16220079403245
1.16220079403247
1.16220079403249
1.16220079403251
1.16220079403252
1.16220079403251
1.16220079403245
1.16220079403226
1.16220079403177
1.16220079403058
1.16220079402763
1.16220079402027
1.16220079400199
1.16220079395773
1.16220079385667
1.16220079363681
1.16220076759628
1.16220076765857
1.16220076768881
1.16220076770285
1.16220076770896
1.1622007677115
1.16220076771249
1.16220076771284
1.16220076771293
1.16220076771291
1.16220076771287
1.16220076771281
1.16220076771275
1.1622007677127
1.16220076771266
1.16220076771262
1.16220076771259
1.16220076771256
1.16220076771254
1.16220076771252
1.1622007677125
1.16220076771248
1.16220076771247
1.16220076771245
1.16220076771244
1.16220076771242
1.16220076771241
1.1622007677124
1.16220076771239
1.16220076771238
1.16220076771238
1.16220076771237
1.16220076771237
1.16220076771238
1.16220076771239
1.16220076771241
1.16220076771243
1.16220076771246
1.1622007677125
1.16220076771254
1.16220076771257
1.16220076771257
1.16220076771249
1.16220076771219
1.16220076771132
1.16220076770903
1.16220076770314
1.16220076768854
1.16220076765444
1.16220076757878
1.16220074125037
1.16220074127111
1.16220074128086
1.16220074128522
1.16220074128705
1.16220074128777
1.162200741288
1.16220074128804
1.162200741288
1.16220074128794
1.16220074128787
1.1622007412878
1.16220074128774
1.16220074128769
1.16220074128765
1.16220074128761
1.16220074128758
1.16220074128756
1.16220074128753
1.16220074128751
1.1622007412875
1.16220074128748
1.16220074128746
1.16220074128745
1.16220074128743
1.16220074128742
1.16220074128741
1.1622007412874
1.16220074128739
1.16220074128738
1.16220074128737
1.16220074128737
1.16220074128737
1.16220074128737
1.16220074128738
1.1622007412874
1.16220074128742
1.16220074128746
1.1622007412875
1.16220074128755
1.1622007412876
1.16220074128765
1.16220074128769
1.16220074128766
1.16220074128746
1.16220074128682
1.16220074128507
1.16220074128053
1.16220074126947
1.16220074124406
1.16220071481807
1.16220071482478
1.16220071482766
1.16220071482881
1.16220071482923
1.16220071482936
1.16220071482937
1.16220071482932
1.16220071482925
1.16220071482918
1.16220071482911
1.16220071482905
1.162200714829
1.16220071482895
1.16220071482891
1.16220071482888
1.16220071482885
1.16220071482882
1.1622007148288
1.16220071482878
1.16220071482876
1.16220071482875
1.16220071482873
1.16220071482872
1.1622007148287
1.16220071482869
1.16220071482868
1.16220071482867
1.16220071482866
1.16220071482865
1.16220071482864
1.16220071482864
1.16220071482864
1.16220071482864
1.16220071482865
1.16220071482866
1.16220071482868
1.16220071482871
1.16220071482875
1.16220071482879
1.16220071482885
1.16220071482891
1.16220071482897
1.16220071482901
1.16220071482901
1.16220071482889
1.16220071482848
1.16220071482727
1.16220071482395
1.16220071481565
1.16220068835727
1.16220068835935
1.16220068835999
1.1622006883601
1.16220068836008
1.16220068836004
1.16220068835999
1.16220068835993
1.16220068835986
1.1622006883598
1.16220068835974
1.16220068835968
1.16220068835964
1.16220068835959
1.16220068835956
1.16220068835953
1.1622006883595
1.16220068835948
1.16220068835946
1.16220068835944
1.16220068835942
1.1622006883594
1.16220068835939
1.16220068835937
1.16220068835936
1.16220068835935
1.16220068835933
1.16220068835932
1.16220068835931
1.1622006883593
1.1622006883593
1.16220068835929
1.16220068835929
1.16220068835929
1.1622006883593
1.16220068835931
1.16220068835933
1.16220068835935
1.16220068835938
1.16220068835942
1.16220068835947
1.16220068835952
1.16220068835957
1.16220068835963
1.16220068835967
1.16220068835971
1.16220068835971
1.16220068835957
1.16220068835879
1.16220068835619
1.16220066188728
1.16220066188786
1.16220066188778
1.16220066188758
1.16220066188744
1.16220066188736
1.1622006618873
1.16220066188724
1.16220066188719
1.16220066188714
1.16220066188709
1.16220066188704
1.162200661887
1.16220066188697
1.16220066188694
1.16220066188691
1.16220066188688
1.16220066188686
1.16220066188684
1.16220066188682
1.1622006618868
1.16220066188679
1.16220066188677
1.16220066188676
1.16220066188675
1.16220066188673
1.16220066188672
1.16220066188671
1.1622006618867
1.16220066188669
1.16220066188668
1.16220066188668
1.16220066188667
1.16220066188667
1.16220066188668
1.16220066188669
1.1622006618867
1.16220066188672
1.16220066188674
1.16220066188677
1.16220066188681
1.16220066188685
1.16220066188689
1.16220066188693
1.16220066188698
1.16220066188705
1.16220066188717
1.16220066188735
1.16220066188739
1.16220066188664
1.16220063541437
1.16220063541449
1.16220063541419
1.1622006354139
1.16220063541373
1.16220063541365
1.16220063541361
1.16220063541357
1.16220063541353
1.16220063541349
1.16220063541345
1.16220063541342
1.16220063541338
1.16220063541335
1.16220063541332
1.1622006354133
1.16220063541328
1.16220063541325
1.16220063541324
1.16220063541322
1.1622006354132
1.16220063541319
1.16220063541317
1.16220063541316
1.16220063541314
1.16220063541313
1.16220063541312
1.16220063541311
1.1622006354131
1.16220063541309
1.16220063541308
1.16220063541307
1.16220063541307
1.16220063541307
1.16220063541307
1.16220063541307
1.16220063541308
1.1622006354131
1.16220063541311
1.16220063541313
1.16220063541316
1.16220063541319
1.16220063541322
1.16220063541324
1.16220063541328
1.16220063541334
1.16220063541348
1.16220063541375
1.16220063541404
1.16220063541388
1.16220060894055
1.16220060894053
1.16220060894017
1.16220060893987
1.16220060893972
1.16220060893965
1.16220060893962
1.1622006089396
1.16220060893958
1.16220060893955
1.16220060893952
1.16220060893949
1.16220060893947
1.16220060893944
1.16220060893942
1.16220060893939
1.16220060893938
1.16220060893936
1.16220060893934
1.16220060893932
1.16220060893931
1.16220060893929
1.16220060893928
1.16220060893926
1.16220060893925
1.16220060893924
1.16220060893923
1.16220060893921
1.1622006089392
1.16220060893919
1.16220060893918
1.16220060893918
1.16220060893917
1.16220060893917
1.16220060893917
1.16220060893917
1.16220060893917
1.16220060893918
1.16220060893919
1.1622006089392
1.16220060893922
1.16220060893923
1.16220060893925
1.16220060893926
1.16220060893928
1.16220060893932
1.16220060893945
1.16220060893974
1.16220060894009
1.16220060894011
1.16220058246646
1.1622005824664
1.16220058246604
1.16220058246575
1.16220058246561
1.16220058246557
1.16220058246555
1.16220058246555
1.16220058246554
1.16220058246552
1.1622005824655
1.16220058246548
1.16220058246546
1.16220058246544
1.16220058246542
1.16220058246541
1.16220058246539
1.16220058246537
1.16220058246536
1.16220058246534
1.16220058246533
1.16220058246531
1.1622005824653
1.16220058246528
1.16220058246527
1.16220058246526
1.16220058246525
1.16220058246523
1.16220058246522
1.16220058246521
1.1622005824652
1.16220058246519
1.16220058246519
1.16220058246518
1.16220058246518
1.16220058246518
1.16220058246518
1.16220058246518
1.16220058246518
1.16220058246519
1.16220058246519
1.16220058246519
1.16220058246519
1.16220058246519
1.16220058246519
1.16220058246521
1.16220058246533
1.1622005824656
1.16220058246596
1.16220058246603
1.16220055599228
1.16220055599222
1.16220055599187
1.1622005559916
1.16220055599148
1.16220055599146
1.16220055599146
1.16220055599147
1.16220055599148
1.16220055599147
1.16220055599146
1.16220055599145
1.16220055599144
1.16220055599142
1.16220055599141
1.16220055599139
1.16220055599138
1.16220055599136
1.16220055599135
1.16220055599134
1.16220055599132
1.16220055599131
1.16220055599129
1.16220055599128
1.16220055599127
1.16220055599126
1.16220055599124
1.16220055599123
1.16220055599122
1.16220055599121
1.1622005559912
1.16220055599119
1.16220055599118
1.16220055599117
1.16220055599116
1.16220055599116
1.16220055599116
1.16220055599115
1.16220055599115
1.16220055599115
1.16220055599114
1.16220055599113
1.16220055599112
1.1622005559911
1.16220055599108
1.16220055599108
1.16220055599118
1.16220055599143
1.16220055599178
1.16220055599186
1.16220052951807
1.16220052951802
1.16220052951769
1.16220052951745
1.16220052951735
1.16220052951734
1.16220052951737
1.16220052951739
1.16220052951741
1.16220052951742
1.16220052951742
1.16220052951741
1.16220052951741
1.1622005295174
1.16220052951739
1.16220052951737
1.16220052951736
1.16220052951735
1.16220052951734
1.16220052951732
1.16220052951731
1.1622005295173
1.16220052951728
1.16220052951727
1.16220052951726
1.16220052951725
1.16220052951723
1.16220052951722
1.16220052951721
1.1622005295172
1.16220052951718
1.16220052951717
1.16220052951716
1.16220052951715
1.16220052951714
1.16220052951714
1.16220052951713