/*--------------------------------*- C++ -*----------------------------------*\
  =========                 |
  \\      /  F ield         | OpenFOAM: The Open Source CFD Toolbox
   \\    /   O peration     | Website:  https://openfoam.org
    \\  /    A nd           | Version:  10
     \\/     M anipulation  |
\*---------------------------------------------------------------------------*/
FoamFile
{
    format      ascii;
    class       volScalarField;
    location    "8.4";
    object      T;
}
// * * * * * * * * * * * * * * * * * * * * * * * * * * * * * * * * * * * * * //

dimensions      [0 0 0 1 0 0 0];

internalField   nonuniform List<scalar> 
2500
(
304.273599416702
304.271331718354
304.262430188011
304.255133476472
304.250213958468
304.2471242787
304.245249984806
304.244141341699
304.243503907617
304.243150184894
304.242959602507
304.242861043823
304.242811960117
304.242787864898
304.242776264377
304.242770479229
304.242767873129
304.242766342019
304.242765241234
304.242764573006
304.242764072954
304.24276367502
304.242763362998
304.242763171468
304.24276298331
304.242762840585
304.242762798269
304.242762807829
304.242762882604
304.242763038959
304.242763312152
304.242763839144
304.242764625865
304.242766048239
304.242768835543
304.24277458734
304.242786632332
304.242811493472
304.242862740005
304.242963547179
304.243156237271
304.243512359696
304.244148921628
304.245252028252
304.247117115826
304.25019420519
304.255116886564
304.262454220647
304.271395483364
304.273512998354
303.537290965366
303.519071705022
303.492882538531
303.47215326368
303.458039231591
303.449015082214
303.443424207726
303.440044104093
303.438055974327
303.436923965472
303.436301379958
303.43597163876
303.435803495543
303.435720656307
303.435681181148
303.435662837963
303.435654640038
303.435650880412
303.435649029515
303.435648102166
303.435647561819
303.435647193877
303.435646926182
303.435646748846
303.435646596313
303.43564647967
303.435646427844
303.435646420815
303.435646470193
303.435646623251
303.435646989006
303.435647831908
303.435649648194
303.435653662816
303.435662539721
303.435681976991
303.435723553805
303.435809822151
303.435983336807
303.436319599278
303.436948753952
303.4380852368
303.440070366718
303.443435042796
303.448997813786
303.4579952905
303.472134328261
303.493001305886
303.519346415036
303.536881219954
302.763389262501
302.728301943392
302.689423797937
302.659856391411
302.639960295094
302.62730871198
302.619494457243
302.61477710009
302.612002451621
302.61042030334
302.609548583574
302.609085630004
302.608848827445
302.608732039792
302.608676453142
302.608650847489
302.608639463831
302.608634461018
302.60863222513
302.608631207219
302.608630692107
302.608630382174
302.608630171448
302.608630030495
302.608629918117
302.608629831372
302.608629783832
302.608629765962
302.608629792918
302.608629930995
302.608630324388
302.608631317867
302.608633679161
302.608639123458
302.608651412464
302.608678584417
302.608736936143
302.608858153811
302.609101477264
302.60957250661
302.610452458479
302.612039932897
302.614811160442
302.619510482484
302.627293190457
302.639925195967
302.659890301702
302.68971496246
302.728947055233
302.763336696228
302.037634800866
301.991733021417
301.948334978416
301.91666071855
301.895879220732
301.882944872662
301.875110853043
301.870463398674
301.867770798572
301.866255024396
301.86542914207
301.864994739539
301.86477442279
301.864666652574
301.864615780223
301.864592577411
301.864582363008
301.864577966874
301.864576080284
301.86457526307
301.864574877954
301.864574660077
301.864574515492
301.864574418302
301.864574343907
301.864574284972
301.864574246536
301.864574223845
301.864574222685
301.864574304047
301.864574598495
301.864575402428
301.864577422944
301.86458219365
301.864593116976
301.864617563075
301.864670621983
301.86478194458
301.865007539386
301.865448742725
301.866282003007
301.867803349777
301.87049522553
301.87513119444
301.882946322734
301.895886092356
301.916788106973
301.948827007004
301.99279593873
302.038434190745
301.419432763067
301.370926750285
301.329720578328
301.300809727221
301.282350610258
301.27112834996
301.264473955457
301.260598627383
301.258387878804
301.257159043081
301.256496431803
301.256150862453
301.25597683096
301.255892226774
301.255852521818
301.255834530416
301.255826668585
301.255823333376
301.255821942611
301.25582136597
301.25582111206
301.255820976983
301.255820888786
301.255820829661
301.255820785905
301.255820749772
301.255820721961
301.255820699572
301.25582068492
301.255820718912
301.25582090247
301.255821466068
301.255822959037
301.255826551297
301.255834859802
301.255853626015
301.255894695651
301.255981549883
301.256158985002
301.256509099131
301.257176926466
301.258410229092
301.260621922871
301.264492249437
301.271141007163
301.282390430488
301.301003339328
301.330341979146
301.372292617779
301.421088999917
300.935523023168
300.891331599674
300.856673298113
300.833236621323
300.818677663729
300.810035746394
300.805020252168
300.80215272364
300.800541324402
300.799656214351
300.799183345204
300.79893848688
300.798815852709
300.798756499338
300.798728754201
300.798716237257
300.798710798901
300.79870851842
300.798707590424
300.798707222311
300.798707072629
300.798706999485
300.798706952479
300.798706921183
300.798706898996
300.798706879295
300.798706860965
300.798706842168
300.798706826396
300.798706831306
300.798706925788
300.798707278551
300.798708272281
300.798710706487
300.798716381457
300.798729293559
300.798757732998
300.798818247615
300.798942676685
300.7991900146
300.799665877093
300.800553798491
300.802166388019
300.805032637211
300.810050429021
300.818729284981
300.83344704435
300.85731533698
300.892791148113
300.937710126051
300.58448103776
300.548609349279
300.522211876971
300.504961188124
300.494529540405
300.488482634597
300.485047021145
300.483117977854
300.482049533721
300.481469108295
300.481161546781
300.481003227547
300.480924268008
300.480886168995
300.480868404146
300.48086041318
300.480856957192
300.48085552284
300.480854952525
300.480854736846
300.480854657699
300.480854624425
300.480854603705
300.48085458999
300.480854581145
300.48085457194
300.480854560839
300.480854546689
300.48085453192
300.480854525395
300.48085456618
300.480854764213
300.480855371708
300.48085688864
300.480860450153
300.480868602419
300.480886646017
300.480925217907
300.481004929163
300.481164326009
300.481473250259
300.4820550235
300.483124129087
300.485053097275
300.488493405255
300.494575612286
300.505146985666
300.52278131182
300.549958366536
300.586774138288
300.346897743693
300.320435539918
300.301967408672
300.29027463699
300.283385592984
300.279483811768
300.277312742604
300.276115095253
300.275460935667
300.275109219809
300.274924202774
300.274829429542
300.274782310013
300.27475961836
300.274749052831
300.274744309219
300.27474226549
300.274741425467
300.274741099249
300.274740982306
300.274740944931
300.274740933767
300.27474092753
300.274740923321
300.274740921576
300.274740918295
300.274740912115
300.274740902411
300.274740890491
300.274740881593
300.27474089425
300.274740995054
300.274741340152
300.274742220603
300.274744302529
300.274749092044
300.274759731032
300.274782549348
300.274829882073
300.274924979203
300.275110423927
300.275462535524
300.276116729525
300.277314207294
300.279489115795
300.283418171428
300.290415196782
300.302413648901
300.321542223536
300.348954001451
300.196041900098
300.178063121874
300.166071722896
300.158699196165
300.154462682664
300.152116698084
300.150837674935
300.15014422426
300.149770540469
300.149571574184
300.149467593034
300.149414545188
300.149388229572
300.149375569954
300.149369678961
300.149367037046
300.149365902579
300.149365440711
300.149365265647
300.149365206438
300.14936519192
300.149365191331
300.149365191259
300.149365191182
300.149365192031
300.149365191556
300.149365188358
300.149365182259
300.149365173717
300.149365166176
300.149365167462
300.149365214105
300.149365396977
300.149365877092
300.149367021378
300.149369664968
300.149375551757
300.149388204571
300.149414518732
300.149467576149
300.149571569404
300.149770466592
300.150143791421
300.150836681039
300.152117717137
300.154481598191
300.158792858665
300.166386683444
300.178883650572
300.197677643515
300.105739596254
300.094378890794
300.08709482159
300.082736842197
300.080291641617
300.078966799892
300.078258737241
300.077881309213
300.077680584747
300.077574699006
300.077519691072
300.077491721937
300.077477867966
300.077471205475
300.077468104953
300.077466715253
300.077466120308
300.077465880439
300.077465791745
300.07746576489
300.077465761235
300.077465763177
300.077465764989
300.077465766437
300.077465767752
300.077465767871
300.077465766394
300.077465762799
300.07746575721
300.077465751519
300.077465749482
300.077465769418
300.077465860409
300.077466108034
300.077466703557
300.07746808426
300.077471163364
300.077477788522
300.077491587876
300.077519481753
300.077574379194
300.077680051103
300.077880291851
300.078256933503
300.078965497518
300.080300495943
300.082792673495
300.08729778645
300.094936122425
300.106919343601
300.054561738423
300.047834086817
300.043667832305
300.041237544047
300.03990457697
300.039197387249
300.038826697682
300.038632376846
300.038530361869
300.03847702775
300.03844947228
300.038435500583
300.038428586115
300.038425260027
300.038423711244
300.038423017163
300.038422720881
300.038422602652
300.038422560413
300.038422549578
300.038422549566
300.038422551491
300.038422553377
300.038422554908
300.038422556
300.038422556322
300.038422555681
300.038422553608
300.038422550219
300.038422546412
300.038422544038
300.038422551806
300.038422594729
300.038422716201
300.03842301131
300.038423697562
300.038425228859
300.03842852398
300.038435390897
300.038449292895
300.038476740432
300.038529871308
300.038631449919
300.038824994022
300.039195353733
300.039907516701
300.041267547283
300.043788465518
300.048184296925
300.055344505325
300.026995859779
300.023239149984
300.020983208882
300.01969788078
300.019007955858
300.018649261229
300.018464769508
300.018369635616
300.018320326997
300.018294772666
300.018281637445
300.01827499285
300.01827170574
300.018270123344
300.018269385757
300.018269055163
300.018268914449
300.018268858902
300.018268839988
300.018268836055
300.018268836791
300.018268838284
300.018268839691
300.018268840831
300.018268841578
300.018268841879
300.018268841607
300.01826884046
300.018268838537
300.018268836235
300.018268834501
300.018268837201
300.018268856447
300.018268913409
300.018269053304
300.018269379437
300.018270107011
300.018271671393
300.018274930175
300.01828153149
300.018294594948
300.018320005189
300.018368991254
300.018463499687
300.018647388338
300.019008116682
300.019712429335
300.021049853822
300.023444523122
300.027478741247
300.012835847275
300.0108476201
300.009685871233
300.009038288945
300.008697725892
300.008524078095
300.008436396107
300.008391911556
300.008369146099
300.008357449012
300.008351465759
300.008348444943
300.008346950453
300.008346230177
300.008345893985
300.008345743248
300.008345679277
300.008345654316
300.008345646319
300.00834564509
300.008345645743
300.008345646719
300.008345647613
300.008345648331
300.008345648785
300.008345648994
300.008345648878
300.008345648274
300.008345647246
300.00834564596
300.008345644877
300.008345645674
300.008345653957
300.008345679599
300.00834574329
300.008345892086
300.00834622373
300.00834693566
300.008348416784
300.008351416221
300.008357360539
300.008368970815
300.008391527325
300.008435574423
300.008522689413
300.008696951027
300.009044602353
300.009720301024
300.010960756301
300.013115062023
300.005877410316
300.00487571359
300.004304474934
300.003992458809
300.003831514078
300.003750968392
300.003711020966
300.003691076816
300.003680998674
300.003675864483
300.003673250488
300.003671932887
300.003671280754
300.00367096598
300.003670818817
300.003670752801
300.003670724871
300.003670714114
300.003670710913
300.003670710619
300.003670711037
300.003670711606
300.003670712116
300.003670712523
300.003670712775
300.003670712898
300.003670712848
300.003670712545
300.003670712024
300.003670711353
300.003670710765
300.003670710949
300.003670714366
300.003670725476
300.003670753424
300.003670818828
300.003670964377
300.003671276092
300.00367192323
300.003673232259
300.003675828172
300.00368091573
300.003690871274
300.003710540429
300.003750068001
300.003830661739
300.003994848187
300.004321184919
300.004934589784
300.006029724745
300.002596861833
300.002114625029
300.001845508121
300.001701255987
300.001628193254
300.001592275873
300.001574770054
300.001566167459
300.00156187504
300.001559706862
300.001558607947
300.001558054788
300.001557780805
300.001557648317
300.001557586259
300.001557558403
300.001557546656
300.001557542206
300.001557540972
300.001557540938
300.001557541187
300.001557541492
300.001557541761
300.001557541973
300.001557542103
300.001557542168
300.001557542146
300.001557542001
300.00155754175
300.001557541419
300.001557541116
300.001557541131
300.001557542501
300.001557547155
300.001557559013
300.001557586796
300.001557648496
300.001557780238
300.00155805296
300.001558603548
300.001559695234
300.001561840528
300.001566066496
300.001574510399
300.001591746332
300.001627550065
300.001701987172
300.001853153096
300.002143706994
300.002675668753
300.001109252364
300.000886677466
300.000764835365
300.000700653158
300.00066869851
300.000653255162
300.000645854165
300.000642273503
300.000640509275
300.000639625687
300.000639179823
300.000638955644
300.000638844493
300.000638790632
300.000638765351
300.000638753994
300.00063874922
300.000638747444
300.000638746986
300.000638747007
300.00063874714
300.000638747293
300.000638747425
300.000638747529
300.000638747592
300.000638747623
300.000638747614
300.000638747547
300.000638747431
300.000638747276
300.00063874713
300.000638747114
300.000638747649
300.000638749541
300.000638754419
300.000638765857
300.000638791192
300.000638845095
300.000638956284
300.00063918015
300.000639623609
300.000640496786
300.000642227294
300.000645722678
300.000652966816
300.000668290395
300.000700781968
300.000768139963
300.000900368195
300.001148099244
300.00045887898
300.000360102215
300.000306946612
300.000279392401
300.000265892831
300.000259473516
300.000256446844
300.000255004762
300.000254303109
300.000253954677
300.000253779614
300.000253691676
300.000253648018
300.000253626813
300.000253616836
300.000253612349
300.000253610469
300.000253609782
300.000253609617
300.000253609638
300.000253609704
300.000253609775
300.000253609836
300.000253609884
300.000253609912
300.000253609927
300.000253609923
300.000253609893
300.000253609842
300.000253609774
300.000253609707
300.000253609693
300.000253609898
300.000253610647
300.000253612599
300.000253617174
300.000253627277
300.000253648684
300.000253692657
300.000253780888
300.000253955373
300.000254299368
300.000254984844
300.000256383809
300.000259326215
300.000265660958
300.000279351
300.000308297607
300.000366266539
300.000477192985
300.000184149917
300.000141890033
300.000119491014
300.000108050449
300.000102528998
300.000099943447
300.000098743302
300.000098179975
300.000097909283
300.000097775999
300.000097709316
300.000097675844
300.0000976592
300.000097651095
300.000097647271
300.000097645548
300.000097644828
300.000097644568
300.00009764451
300.000097644522
300.000097644552
300.000097644582
300.000097644609
300.000097644629
300.000097644642
300.000097644648
300.000097644646
300.000097644634
300.000097644612
300.000097644583
300.000097644555
300.000097644548
300.000097644626
300.000097644916
300.000097645677
300.00009764746
300.000097651382
300.000097659654
300.000097676564
300.000097710356
300.000097777019
300.000097908517
300.000098171816
300.00009871447
300.000099872194
300.000102407561
300.000107988272
300.000120013147
300.00014455287
300.000192434903
300.000071799876
300.000054329138
300.000045193059
300.00004058957
300.000038398678
300.000037387499
300.000036925109
300.000036711205
300.000036609678
300.000036560108
300.000036535409
300.000036523018
300.000036516845
300.000036513828
300.0000365124
300.000036511755
300.000036511485
300.000036511388
300.000036511367
300.000036511372
300.000036511384
300.000036511396
300.000036511406
300.000036511414
300.000036511419
300.000036511421
300.000036511421
300.000036511416
300.000036511407
300.000036511396
300.000036511385
300.000036511383
300.000036511413
300.000036511524
300.000036511815
300.000036512494
300.00003651398
300.000036517097
300.000036523434
300.000036536039
300.000036560827
300.000036609712
300.000036708
300.000036912447
300.000037354634
300.000038339079
300.000040544612
300.000045383343
300.00005543573
300.000075406903
300.000027238614
300.000020244743
300.000016630908
300.000014832437
300.000013987529
300.000013602843
300.000013429422
300.000013350316
300.000013313219
300.000013295257
300.000013286342
300.00001328187
300.000013279636
300.000013278539
300.000013278017
300.00001327778
300.00001327768
300.000013277643
300.000013277634
300.000013277635
300.000013277638
300.000013277642
300.000013277646
300.000013277648
300.00001327765
300.000013277651
300.00001327765
300.000013277649
300.000013277646
300.000013277642
300.000013277638
300.000013277638
300.000013277651
300.000013277694
300.000013277804
300.000013278058
300.000013278609
300.000013279758
300.000013282078
300.000013286667
300.000013295657
300.000013313367
300.000013349096
300.000013424055
300.00001358831
300.000013959827
300.000014806407
300.000016695917
300.000020688211
300.000028753842
300.000010068099
300.000007351824
300.000005963165
300.00000527988
300.000004962695
300.000004820106
300.000004756684
300.000004728141
300.000004714911
300.000004708555
300.000004705412
300.000004703833
300.000004703041
300.00000470265
300.000004702461
300.000004702374
300.000004702336
300.000004702321
300.000004702316
300.000004702315
300.000004702315
300.000004702315
300.000004702316
300.000004702316
300.000004702316
300.000004702316
300.000004702316
300.000004702316
300.000004702315
300.000004702314
300.000004702314
300.000004702315
300.000004702321
300.000004702338
300.00000470238
300.000004702475
300.000004702677
300.000004703093
300.000004703926
300.000004705561
300.000004708747
300.000004715013
300.000004727685
300.000004754476
300.000004813916
300.000004950409
300.00000526653
300.000005983739
300.000007523577
300.00001068367
300.000003630559
300.000002605311
300.000002086154
300.000001833345
300.000001717274
300.000001665707
300.000001643057
300.000001632992
300.000001628377
300.000001626176
300.000001625089
300.000001624541
300.000001624264
300.000001624125
300.000001624056
300.000001624022
300.000001624007
300.000001623999
300.000001623995
300.000001623993
300.000001623992
300.000001623991
300.00000162399
300.00000162399
300.000001623989
300.000001623989
300.000001623989
300.000001623989
300.000001623989
300.00000162399
300.000001623991
300.000001623992
300.000001623996
300.000001624004
300.000001624021
300.000001624057
300.000001624131
300.000001624281
300.000001624576
300.000001625149
300.000001626256
300.000001628426
300.000001632819
300.00000164217
300.000001663156
300.000001712045
300.000001827039
300.000002092035
300.000002669719
300.00000387291
300.000001278839
300.00000090217
300.000000713096
300.000000621905
300.000000580458
300.000000562242
300.000000554333
300.000000550857
300.000000549278
300.000000548528
300.000000548157
300.000000547968
300.00000054787
300.000000547819
300.000000547792
300.000000547778
300.00000054777
300.000000547765
300.000000547762
300.000000547759
300.000000547757
300.000000547756
300.000000547755
300.000000547754
300.000000547753
300.000000547753
300.000000547753
300.000000547753
300.000000547754
300.000000547755
300.000000547756
300.000000547758
300.000000547761
300.000000547765
300.000000547773
300.000000547789
300.000000547817
300.000000547872
300.000000547977
300.000000548176
300.000000548556
300.000000549295
300.000000550788
300.000000553981
300.00000056122
300.000000578311
300.000000619106
300.000000714523
300.000000925598
300.000001371476
300.00000044063
300.000000305744
300.000000238605
300.000000206522
300.000000192075
300.000000185786
300.000000183081
300.000000181903
300.00000018137
300.000000181117
300.000000180989
300.000000180922
300.000000180885
300.000000180864
300.000000180852
300.000000180844
300.000000180839
300.000000180835
300.000000180831
300.000000180829
300.000000180827
300.000000180825
300.000000180824
300.000000180823
300.000000180822
300.000000180822
300.000000180822
300.000000180822
300.000000180823
300.000000180824
300.000000180825
300.000000180827
300.00000018083
300.000000180833
300.000000180838
300.000000180846
300.000000180859
300.000000180881
300.00000018092
300.00000018099
300.000000181121
300.000000181371
300.000000181871
300.000000182941
300.000000185384
300.00000019122
300.000000205341
300.000000238841
300.000000314023
300.000000475068
300.000000148788
300.000000101653
300.00000007841
300.000000067413
300.000000062505
300.000000060384
300.000000059477
300.000000059082
300.000000058902
300.000000058815
300.000000058768
300.000000058742
300.000000058725
300.000000058715
300.000000058707
300.000000058701
300.000000058697
300.000000058693
300.00000005869
300.000000058687
300.000000058685
300.000000058683
300.000000058682
300.000000058681
300.00000005868
300.00000005868
300.00000005868
300.00000005868
300.000000058681
300.000000058682
300.000000058684
300.000000058686
300.000000058688
300.000000058691
300.000000058695
300.0000000587
300.000000058708
300.000000058718
300.000000058735
300.000000058762
300.00000005881
300.000000058896
300.000000059063
300.000000059417
300.000000060226
300.000000062172
300.000000066935
300.000000078392
300.000000104498
300.000000161256
300.000000049415
300.000000033332
300.000000025511
300.000000021861
300.000000020246
300.00000001955
300.000000019251
300.000000019118
300.000000019055
300.000000019022
300.000000019002
300.000000018989
300.000000018979
300.000000018972
300.000000018966
300.000000018961
300.000000018957
300.000000018953
300.00000001895
300.000000018947
300.000000018945
300.000000018943
300.000000018942
300.000000018941
300.00000001894
300.00000001894
300.00000001894
300.00000001894
300.000000018941
300.000000018942
300.000000018944
300.000000018946
300.000000018948
300.000000018951
300.000000018955
300.000000018959
300.000000018964
300.000000018971
300.000000018981
300.000000018994
300.000000019013
300.000000019046
300.000000019104
300.000000019222
300.000000019486
300.000000020117
300.000000021673
300.000000025469
300.000000034285
300.000000053818
300.000000016291
300.000000010936
300.000000008407
300.00000000726
300.000000006758
300.00000000654
300.000000006442
300.000000006395
300.000000006369
300.000000006353
300.000000006342
300.000000006333
300.000000006326
300.000000006319
300.000000006314
300.000000006309
300.000000006305
300.000000006302
300.000000006299
300.000000006296
300.000000006294
300.000000006292
300.000000006291
300.00000000629
300.000000006289
300.000000006289
300.000000006289
300.000000006289
300.00000000629
300.000000006291
300.000000006292
300.000000006294
300.000000006297
300.0000000063
300.000000006303
300.000000006307
300.000000006312
300.000000006318
300.000000006324
300.000000006333
300.000000006344
300.000000006359
300.000000006382
300.000000006424
300.00000000651
300.000000006707
300.000000007188
300.000000008382
300.000000011247
300.000000017808
300.000000005471
300.00000000374
300.000000002988
300.000000002675
300.000000002542
300.000000002479
300.000000002446
300.000000002427
300.000000002413
300.000000002403
300.000000002394
300.000000002387
300.00000000238
300.000000002374
300.000000002369
300.000000002364
300.00000000236
300.000000002357
300.000000002354
300.000000002351
300.000000002349
300.000000002347
300.000000002346
300.000000002345
300.000000002344
300.000000002344
300.000000002344
300.000000002344
300.000000002345
300.000000002346
300.000000002348
300.000000002349
300.000000002352
300.000000002355
300.000000002358
300.000000002362
300.000000002367
300.000000002372
300.000000002378
300.000000002385
300.000000002393
300.000000002403
300.000000002415
300.000000002433
300.000000002462
300.000000002519
300.000000002647
300.000000002976
300.000000003839
300.000000005982
300.000000002006
300.000000001473
300.000000001305
300.000000001264
300.000000001249
300.000000001237
300.000000001225
300.000000001214
300.000000001204
300.000000001195
300.000000001187
300.00000000118
300.000000001173
300.000000001168
300.000000001162
300.000000001158
300.000000001154
300.00000000115
300.000000001147
300.000000001145
300.000000001143
300.000000001141
300.00000000114
300.000000001139
300.000000001138
300.000000001138
300.000000001138
300.000000001138
300.000000001139
300.00000000114
300.000000001141
300.000000001143
300.000000001146
300.000000001149
300.000000001152
300.000000001156
300.00000000116
300.000000001165
300.000000001171
300.000000001178
300.000000001185
300.000000001193
300.000000001202
300.000000001213
300.000000001224
300.000000001237
300.000000001253
300.000000001301
300.000000001504
300.000000002174
300.000000000919
300.000000000773
300.000000000793
300.000000000839
300.000000000861
300.000000000864
300.000000000858
300.000000000849
300.00000000084
300.000000000832
300.000000000824
300.000000000817
300.000000000811
300.000000000805
300.0000000008
300.000000000795
300.000000000792
300.000000000788
300.000000000785
300.000000000783
300.000000000781
300.000000000779
300.000000000778
300.000000000777
300.000000000776
300.000000000776
300.000000000776
300.000000000776
300.000000000777
300.000000000778
300.000000000779
300.000000000781
300.000000000784
300.000000000786
300.00000000079
300.000000000793
300.000000000798
300.000000000803
300.000000000808
300.000000000815
300.000000000822
300.00000000083
300.000000000838
300.000000000847
300.000000000853
300.000000000853
300.000000000833
300.000000000792
300.000000000783
300.000000000972
300.000000000585
300.000000000563
300.000000000641
300.000000000714
300.000000000747
300.000000000754
300.00000000075
300.000000000741
300.000000000732
300.000000000724
300.000000000716
300.000000000709
300.000000000703
300.000000000697
300.000000000692
300.000000000688
300.000000000684
300.000000000681
300.000000000678
300.000000000675
300.000000000673
300.000000000672
300.00000000067
300.00000000067
300.000000000669
300.000000000669
300.000000000669
300.000000000669
300.00000000067
300.000000000671
300.000000000672
300.000000000674
300.000000000676
300.000000000679
300.000000000682
300.000000000686
300.00000000069
300.000000000695
300.000000000701
300.000000000707
300.000000000714
300.000000000722
300.000000000731
300.000000000739
300.000000000744
300.00000000074
300.000000000711
300.000000000643
300.000000000567
300.000000000601
300.000000000487
300.000000000503
300.000000000599
300.000000000679
300.000000000715
300.000000000722
300.000000000718
300.000000000709
300.0000000007
300.000000000692
300.000000000684
300.000000000677
300.000000000671
300.000000000665
300.00000000066
300.000000000656
300.000000000652
300.000000000649
300.000000000646
300.000000000644
300.000000000642
300.00000000064
300.000000000639
300.000000000638
300.000000000637
300.000000000637
300.000000000637
300.000000000637
300.000000000638
300.000000000639
300.000000000641
300.000000000642
300.000000000645
300.000000000647
300.00000000065
300.000000000654
300.000000000658
300.000000000663
300.000000000669
300.000000000675
300.000000000682
300.00000000069
300.000000000699
300.000000000708
300.000000000713
300.000000000709
300.000000000677
300.000000000601
300.000000000506
300.000000000491
300.000000000462
300.00000000049
300.00000000059
300.000000000671
300.000000000707
300.000000000713
300.000000000708
300.000000000699
300.00000000069
300.000000000681
300.000000000673
300.000000000666
300.00000000066
300.000000000655
300.00000000065
300.000000000646
300.000000000642
300.000000000639
300.000000000636
300.000000000634
300.000000000632
300.00000000063
300.000000000629
300.000000000628
300.000000000628
300.000000000627
300.000000000627
300.000000000628
300.000000000628
300.000000000629
300.000000000631
300.000000000633
300.000000000635
300.000000000637
300.00000000064
300.000000000644
300.000000000648
300.000000000653
300.000000000659
300.000000000665
300.000000000672
300.00000000068
300.000000000689
300.000000000698
300.000000000705
300.000000000701
300.00000000067
300.000000000593
300.000000000492
300.000000000462
300.000000000459
300.00000000049
300.000000000591
300.000000000671
300.000000000705
300.000000000711
300.000000000705
300.000000000695
300.000000000686
300.000000000677
300.000000000669
300.000000000662
300.000000000656
300.00000000065
300.000000000646
300.000000000641
300.000000000638
300.000000000635
300.000000000632
300.00000000063
300.000000000628
300.000000000627
300.000000000626
300.000000000625
300.000000000624
300.000000000624
300.000000000624
300.000000000624
300.000000000625
300.000000000626
300.000000000627
300.000000000629
300.000000000631
300.000000000634
300.000000000637
300.00000000064
300.000000000644
300.000000000649
300.000000000655
300.000000000661
300.000000000668
300.000000000677
300.000000000686
300.000000000695
300.000000000703
300.0000000007
300.00000000067
300.000000000594
300.000000000492
300.000000000459
300.000000000464
300.000000000496
300.000000000596
300.000000000673
300.000000000706
300.00000000071
300.000000000703
300.000000000693
300.000000000683
300.000000000674
300.000000000666
300.000000000659
300.000000000653
300.000000000647
300.000000000643
300.000000000639
300.000000000636
300.000000000633
300.00000000063
300.000000000628
300.000000000626
300.000000000625
300.000000000624
300.000000000623
300.000000000622
300.000000000622
300.000000000622
300.000000000622
300.000000000623
300.000000000624
300.000000000625
300.000000000627
300.000000000629
300.000000000631
300.000000000634
300.000000000638
300.000000000642