/*--------------------------------*- C++ -*----------------------------------*\
  =========                 |
  \\      /  F ield         | OpenFOAM: The Open Source CFD Toolbox
   \\    /   O peration     | Website:  https://openfoam.org
    \\  /    A nd           | Version:  10
     \\/     M anipulation  |
\*---------------------------------------------------------------------------*/
FoamFile
{
    format      ascii;
    class       volVectorField;
    location    "8.4";
    object      U;
}
// * * * * * * * * * * * * * * * * * * * * * * * * * * * * * * * * * * * * * //

dimensions      [0 1 -1 0 0 0 0];

internalField   nonuniform List<vector> 
2500
(
(-1.21749335175691e-06 -1.41885813942623e-06 1.94447270468138e-25)
(-3.24004214675982e-06 -1.9808872895239e-06 2.52373664361007e-24)
(-3.63636411456109e-06 -2.19735779967216e-06 2.5578989985105e-25)
(-3.12940385512512e-06 -2.30355795749489e-06 -6.63156024402616e-26)
(-2.32375164512038e-06 -2.32124560498147e-06 -6.86783387607061e-25)
(-1.63178259133738e-06 -2.3082095044401e-06 -7.61669135520169e-25)
(-1.11052365325072e-06 -2.28759783158369e-06 -2.90351291512038e-25)
(-7.52202411300014e-07 -2.26977506280093e-06 -2.7717512740422e-25)
(-5.09408229623269e-07 -2.25592306286461e-06 -4.62802902988433e-25)
(-3.47649232334453e-07 -2.24602005074493e-06 2.77596699781194e-24)
(-2.39187868630947e-07 -2.23918645726551e-06 1.58290553815393e-24)
(-1.65938417889602e-07 -2.23467716804475e-06 3.86924113053571e-24)
(-1.15635420192396e-07 -2.23179082410491e-06 3.39297133792685e-24)
(-8.0352004298067e-08 -2.22999197136894e-06 1.24822488715282e-24)
(-5.4983405497207e-08 -2.22889311597467e-06 3.06860667833972e-24)
(-3.62591129102843e-08 -2.22822530199501e-06 8.56406529324093e-25)
(-2.20909520588057e-08 -2.22781689351475e-06 3.54310132957483e-24)
(-1.11236363962811e-08 -2.22756584973389e-06 2.72691923016671e-24)
(-2.45766093577367e-09 -2.22741269123111e-06 5.94246276328455e-25)
(4.52246468700264e-09 -2.22730893363129e-06 2.52602988526301e-24)
(1.02444030290908e-08 -2.22724430786432e-06 1.93834224052253e-26)
(1.50290115955057e-08 -2.22720569061285e-06 -2.47178491323333e-25)
(1.91205788671821e-08 -2.22718465048468e-06 3.02903924531757e-24)
(2.27139827623512e-08 -2.22717123184278e-06 3.03301341489583e-25)
(2.5981058693091e-08 -2.22717049454002e-06 -1.39923027516297e-25)
(2.90762140988199e-08 -2.22717808726299e-06 2.83562393829249e-24)
(3.21480730214707e-08 -2.22719612212636e-06 1.02021426983189e-25)
(3.53488055520829e-08 -2.22722542105788e-06 9.84126327584376e-25)
(3.88449508903201e-08 -2.22727084836805e-06 3.17639648942952e-24)
(4.28356656259244e-08 -2.2273303501913e-06 -9.11782614591955e-26)
(4.75621127069978e-08 -2.22741062453032e-06 2.13547147478896e-25)
(5.33407903414203e-08 -2.22753382276665e-06 -2.66149329615646e-25)
(6.06015479010783e-08 -2.22771283219932e-06 7.54536548791314e-25)
(6.9946354125895e-08 -2.22799168440102e-06 7.55060673505101e-25)
(8.22807602618252e-08 -2.22842179483671e-06 -4.3606377439005e-26)
(9.89706728799581e-08 -2.22911851918497e-06 2.5752197434763e-24)
(1.22108603163889e-07 -2.2302502935317e-06 -2.68673771781912e-24)
(1.54976108210832e-07 -2.23207192172545e-06 -2.56449275795038e-25)
(2.02665767889371e-07 -2.23496938368783e-06 2.30097823674776e-26)
(2.73095937840543e-07 -2.23947464970863e-06 -1.6126666532028e-24)
(3.78517282218627e-07 -2.2462736341819e-06 -4.71168179089762e-24)
(5.3702823268753e-07 -2.25611253568539e-06 -4.5674989598464e-24)
(7.76462198839516e-07 -2.26991302077954e-06 -2.38902029787805e-24)
(1.13192442257561e-06 -2.28782919670416e-06 -4.48557133578642e-24)
(1.65227244928699e-06 -2.30886909923075e-06 -4.63699280362661e-24)
(2.34862170839517e-06 -2.32285283368887e-06 -2.50065606839409e-24)
(3.16611206811178e-06 -2.30591074954382e-06 -3.8071917547527e-24)
(3.68757622716849e-06 -2.19807880155238e-06 -4.49101241719812e-24)
(3.27832664063832e-06 -1.97632066458744e-06 -1.94278362060895e-24)
(1.22307272430703e-06 -1.41713349066892e-06 -2.35979486960673e-24)
(-1.73167073015814e-06 -1.50872402370446e-06 -6.55840938539986e-26)
(-5.7373761709548e-06 -2.88768205013789e-06 -2.42594386014197e-25)
(-6.68628501066062e-06 -4.14042423235615e-06 7.49334163460506e-27)
(-5.91979738491175e-06 -4.76499592271253e-06 -3.73252476593608e-25)
(-4.50293954180846e-06 -4.85899004689201e-06 -2.31905437999968e-24)
(-3.23240226955302e-06 -4.73378476692538e-06 -2.3820724510219e-24)
(-2.24930511906681e-06 -4.57100411519944e-06 -8.44571909338704e-25)
(-1.5588521823951e-06 -4.43463541413131e-06 -8.65784699485913e-25)
(-1.08287190297826e-06 -4.33500288444994e-06 -2.18358954629266e-24)
(-7.59651999304072e-07 -4.26636553608057e-06 1.11474529734739e-25)
(-5.38333208863565e-07 -4.22047102813697e-06 3.06072235800486e-24)
(-3.85038746616806e-07 -4.19032807763719e-06 2.95878154464426e-24)
(-2.76704023077245e-07 -4.1707184111588e-06 1.33476784648315e-24)
(-1.98323801872939e-07 -4.157998485954e-06 2.14124289037549e-24)
(-1.40164818836091e-07 -4.14968187730285e-06 7.01799519314143e-25)
(-9.59119937950733e-08 -4.14417094584737e-06 8.8095497845572e-25)
(-6.14634148779167e-08 -4.14043331278163e-06 2.03932789808886e-24)
(-3.40959790952768e-08 -4.13783851565261e-06 7.78648064102968e-25)
(-1.19484330053939e-08 -4.13598921274143e-06 2.45234897917361e-25)
(6.27837134271265e-09 -4.13464748859329e-06 -3.45805924133644e-25)
(2.15186153661677e-08 -4.13366298078769e-06 -6.99750863696596e-25)
(3.45012684385705e-08 -4.13294178436961e-06 -1.53433387019536e-24)
(4.57950705625376e-08 -4.13243323551767e-06 1.10632327385085e-24)
(5.58586491103118e-08 -4.13208813202018e-06 5.33472305406896e-26)
(6.5102812737453e-08 -4.13189898694266e-06 -1.30380973224892e-24)
(7.39068620871928e-08 -4.13184421560477e-06 7.38455545387379e-25)
(8.26320450998306e-08 -4.1319352248906e-06 -6.27078307087828e-25)
(9.16506729778086e-08 -4.13216794384376e-06 2.18356366092957e-24)
(1.01369251971283e-07 -4.13258165406415e-06 1.67665791123554e-24)
(1.12257786329808e-07 -4.13319656093555e-06 -1.05082165461014e-24)
(1.24865154737389e-07 -4.13407983080538e-06 6.37617239336602e-25)
(1.39907511444324e-07 -4.13531799300193e-06 -8.09908602974894e-25)
(1.58324713403467e-07 -4.13706508601239e-06 2.22804277888176e-24)
(1.81401011240368e-07 -4.13956875960603e-06 2.17066248277036e-24)
(2.10995375933139e-07 -4.14321178324039e-06 -8.93205936052498e-25)
(2.49838607912185e-07 -4.14865047152447e-06 6.36729825693705e-25)
(3.02055588871696e-07 -4.15688982238302e-06 -1.11428720937202e-24)
(3.73975339915182e-07 -4.16954090439791e-06 -8.44425525961837e-26)
(4.75317360282992e-07 -4.18904934456046e-06 5.45424309015726e-25)
(6.21103293744567e-07 -4.21906861220757e-06 -3.345475028481e-24)
(8.34393116759795e-07 -4.26478951665193e-06 -4.54530238083022e-24)
(1.14915037827381e-06 -4.33327356996353e-06 -4.58819125569834e-24)
(1.61648585413484e-06 -4.43303626821893e-06 -4.8646638045765e-24)
(2.29935332711467e-06 -4.57053547946715e-06 -4.55093114187634e-24)
(3.27876952778655e-06 -4.73671354193959e-06 -4.79754453249382e-24)
(4.55585780486926e-06 -4.86820541211328e-06 -5.17170560992034e-24)
(5.99410544459495e-06 -4.77894061546721e-06 -4.66540573248359e-24)
(6.78886648077504e-06 -4.14328036992197e-06 -4.45999944223582e-24)
(5.82107009276738e-06 -2.86195815034547e-06 -3.98917936184032e-24)
(1.74769636418525e-06 -1.48576362426841e-06 -2.07516834681076e-24)
(-1.19822382765049e-06 1.0893847059445e-06 -4.59614508971185e-25)
(-5.49573108951436e-06 -5.89637810828048e-07 -2.85857537410183e-24)
(-6.63815376962436e-06 -2.9838708199004e-06 -4.00555002275674e-25)
(-6.08845152630016e-06 -4.19789357150312e-06 -5.70400497948286e-25)
(-4.77614454812949e-06 -4.39159874326945e-06 -3.60730746916199e-24)
(-3.53874873754294e-06 -4.14025139861202e-06 -4.17740937618164e-24)
(-2.54362278844559e-06 -3.81122830296808e-06 -1.12441260023264e-24)
(-1.82320814662969e-06 -3.53439286874809e-06 -1.20173277491783e-24)
(-1.31162413414179e-06 -3.33299827307452e-06 -4.34566394439632e-24)
(-9.53414429966529e-07 -3.19485716740737e-06 -2.48212816373608e-24)
(-6.99996560484491e-07 -3.10270979447319e-06 3.61282092400325e-24)
(-5.18285856078907e-07 -3.04192917336461e-06 1.56018478913396e-24)
(-3.85288081969281e-07 -3.00193043498231e-06 -1.71577358396315e-24)
(-2.85726416658558e-07 -2.97544492330097e-06 2.81970969225078e-24)
(-2.09484500670465e-07 -2.95766111007389e-06 -2.34658976648224e-24)
(-1.49826770221137e-07 -2.94548598563395e-06 2.2380853059269e-25)
(-1.02224192566702e-07 -2.93694500968154e-06 3.11302794557695e-25)
(-6.35728384950955e-08 -2.93081817975588e-06 -1.80726288919264e-24)
(-3.16945068442656e-08 -2.92631629228675e-06 -5.8498836952634e-25)
(-5.00223826047629e-09 -2.92297190672108e-06 -3.33894824542154e-24)
(1.76912098107016e-08 -2.92046511301675e-06 -1.400463390085e-24)
(3.73117402493796e-08 -2.91859213600708e-06 -3.30698080779811e-24)
(5.46135197365904e-08 -2.91723736385713e-06 -6.11160025755693e-25)
(7.02242058009882e-08 -2.91631363941047e-06 -4.12151348047362e-25)
(8.47064333306456e-08 -2.91577053297947e-06 -3.13460677461292e-24)
(9.85782698284406e-08 -2.91559266090623e-06 -9.86917209789208e-25)
(1.12346424053306e-07 -2.9157747084564e-06 -1.7390784011682e-24)
(1.26522283173303e-07 -2.91633975031448e-06 3.39679488192922e-24)
(1.41659657358031e-07 -2.91733068837324e-06 2.21048329360395e-25)
(1.5839405652407e-07 -2.91883536325071e-06 -2.76147067401512e-24)
(1.77458465546537e-07 -2.9209841670184e-06 1.56480134445353e-24)
(1.9977456066133e-07 -2.92396471308997e-06 -1.77424621647864e-24)
(2.26516708220597e-07 -2.92809145921651e-06 3.4071485497978e-24)
(2.5925495993939e-07 -2.93385228466502e-06 3.77496646288206e-24)
(3.00170120318931e-07 -2.9420359869757e-06 -2.51367135578942e-24)
(3.52373660308044e-07 -2.95387962860447e-06 -6.99925937755579e-25)
(4.20395769894899e-07 -2.97133539141637e-06 6.79883655286448e-26)
(5.10990963111303e-07 -2.99751745275636e-06 3.14295345605481e-25)
(6.34282774346576e-07 -3.03720703552071e-06 1.92620960800734e-24)
(8.05580177976279e-07 -3.09767553725253e-06 -4.7409337630311e-24)
(1.04789971752549e-06 -3.18952780892905e-06 -3.27624899508999e-24)
(1.39449972748072e-06 -3.32753193333235e-06 -3.37790945130927e-24)
(1.89430641705238e-06 -3.52947736134728e-06 -6.41458573011845e-24)
(2.60411998281147e-06 -3.80890778245557e-06 -3.44847915255734e-24)
(3.59282198420664e-06 -4.1450414648156e-06 -3.73088040718139e-24)
(4.83471120493507e-06 -4.40922081350137e-06 -6.86572924522e-24)
(6.1683342498307e-06 -4.2256840284578e-06 -3.55450664913425e-24)
(6.75059693203758e-06 -2.99151792187655e-06 -3.28348948157193e-24)
(5.59995034702994e-06 -5.4161332889669e-07 -5.79442616206957e-24)
(1.22619762237845e-06 1.14680875696017e-06 -1.45903317757824e-24)
(-5.29054664425743e-07 3.62550924837419e-06 -4.66581329552917e-25)
(-3.83883782093905e-06 2.12927976077803e-06 -3.146596737773e-24)
(-4.92302721845275e-06 -1.23063250876795e-06 -3.27541481075019e-25)
(-4.79126038530613e-06 -3.00529171049153e-06 -2.43741775098115e-25)
(-3.95810486161707e-06 -3.36102196074436e-06 -1.65735053996556e-24)
(-3.08908889653161e-06 -3.05837722821728e-06 -2.37121543075616e-24)
(-2.33565485202219e-06 -2.62282098774361e-06 -7.76506033688707e-25)
(-1.75871485775633e-06 -2.24503608463497e-06 -8.67610140486501e-25)
(-1.32632463165395e-06 -1.96598170328524e-06 -2.82312358040773e-24)
(-1.00770427963987e-06 -1.77207947314264e-06 -3.20750330625167e-24)
(-7.70820783818137e-07 -1.64103607443845e-06 2.29734707327687e-24)
(-5.9278697789547e-07 -1.55320489864394e-06 -4.3843811914699e-25)
(-4.5675862515914e-07 -1.49425690844004e-06 -2.06014664454995e-24)
(-3.51001832829417e-07 -1.45431080710251e-06 1.10296743735991e-24)
(-2.67368945641762e-07 -1.4268185658397e-06 -2.45830443515322e-24)
(-2.00140437243161e-07 -1.40750464472106e-06 -1.00134154739811e-25)
(-1.45284570140589e-07 -1.39362419199765e-06 -8.87138568509448e-25)
(-9.98896019813542e-08 -1.38343989859822e-06 -2.81835666470513e-24)
(-6.18190380823071e-08 -1.37583260978232e-06 -6.2953074181892e-25)
(-2.94625383426566e-08 -1.37008260354591e-06 -3.07776111217612e-24)
(-1.56330457793495e-09 -1.36572082435565e-06 -1.15380220378009e-24)
(2.28820662532935e-08 -1.36244065619388e-06 -2.11344565217508e-24)
(4.47062814310484e-08 -1.36004330076673e-06 -1.68316670246461e-24)
(6.46235826512318e-08 -1.35839103994596e-06 -3.96230313329651e-25)
(8.32710850549422e-08 -1.35741883705528e-06 -1.78037492069282e-24)
(1.01249280709274e-07 -1.35708029747481e-06 -2.24758033651718e-24)
(1.19141440928209e-07 -1.35736940470933e-06 -1.14280242365586e-24)
(1.37541332084399e-07 -1.35834517998542e-06 1.74856582167336e-24)
(1.57081438319971e-07 -1.36006077761022e-06 -1.61174359613564e-24)
(1.78471265511667e-07 -1.36265157892792e-06 -1.70026490143088e-24)
(2.02530066636677e-07 -1.3663197892025e-06 5.11213568105858e-25)
(2.30255034924415e-07 -1.37137406207949e-06 -1.00714228295563e-24)
(2.62887064329824e-07 -1.37827190909444e-06 2.28923733084912e-24)
(3.02020483464922e-07 -1.3877428360502e-06 2.2119236997606e-24)
(3.49787532405332e-07 -1.40092358659901e-06 -1.43737649584102e-24)
(4.0909525195588e-07 -1.41956103827307e-06 -1.71331256493856e-24)
(4.83973643343338e-07 -1.44639620439054e-06 1.64541341493375e-24)
(5.80148426996108e-07 -1.48569973060275e-06 4.04871803372654e-25)
(7.05779455799447e-07 -1.5440209515201e-06 6.73651933487486e-25)
(8.72641702373832e-07 -1.63126348441399e-06 -3.53605671600824e-24)
(1.09762043728573e-06 -1.76181169691458e-06 -9.38965589093405e-25)
(1.40381016134169e-06 -1.95554364082796e-06 -7.08689159706375e-25)
(1.82355018412556e-06 -2.23555359040246e-06 -4.49944940035443e-24)
(2.38874771996615e-06 -2.61738575707649e-06 -8.21818738105719e-25)
(3.13372570234835e-06 -3.06367619802729e-06 -1.79744017063339e-24)
(4.00330248934745e-06 -3.3857933164882e-06 -4.83010419565413e-24)
(4.85240044526867e-06 -3.04698405476255e-06 -8.45038965496086e-25)
(5.01416250294788e-06 -1.24762681637388e-06 -5.60824487141087e-25)
(3.93750609886816e-06 2.19192531261829e-06 -4.30407171482126e-24)
(5.64016412000981e-07 3.71330333309485e-06 1.67655663218487e-25)
(1.75186409159091e-08 5.48625852926107e-06 -1.33004623556309e-25)
(-1.83500763628574e-06 4.40995764263335e-06 -1.42122683835887e-24)
(-2.73576898845123e-06 4.60295817674194e-07 1.43726375541638e-25)
(-3.01783676471106e-06 -1.75126504201557e-06 2.44691798816762e-25)
(-2.751154426974e-06 -2.31019969654423e-06 3.07891521945916e-25)
(-2.34410716221223e-06 -2.04923226881435e-06 -1.05998039664853e-24)
(-1.91306585577184e-06 -1.59093212686072e-06 -2.63348050322024e-25)
(-1.53991251071688e-06 -1.17195495308183e-06 -3.10165628010303e-25)
(-1.23028676899054e-06 -8.53305066805706e-07 -1.42835861119366e-24)
(-9.8222787228205e-07 -6.26486247285159e-07 -1.3236520822538e-24)
(-7.84172070264955e-07 -4.69657848595148e-07 1.6908395659923e-24)
(-6.26126679142028e-07 -3.62037609868087e-07 5.11180028412181e-25)
(-4.99270481765524e-07 -2.88001745638468e-07 -7.44566189756289e-25)
(-3.96636130434238e-07 -2.36552216684555e-07 8.66936306959148e-25)
(-3.12852976524481e-07 -2.00255875245453e-07 -1.04567397874767e-24)
(-2.43780885226072e-07 -1.74165529239872e-07 3.00113961120617e-25)
(-1.86258739520593e-07 -1.55033159587724e-07 -6.08795988675891e-26)
(-1.37847610868246e-07 -1.40751442827899e-07 -7.4528381213474e-25)
(-9.66548218174311e-08 -1.29933340876164e-07 7.47084149688981e-26)
(-6.11792217947225e-08 -1.21668832534669e-07 -1.22488702561467e-24)
(-3.0213832105605e-08 -1.15346795867417e-07 -3.59771923965602e-25)
(-2.76748912709224e-09 -1.10564441502013e-07 -9.43315133925877e-25)
(2.20089002858154e-08 -1.07054748766434e-07 -5.97988428952104e-25)
(4.4844112477374e-08 -1.04637425647924e-07 8.3600360775494e-26)
(6.64105903921338e-08 -1.03211616146353e-07 -6.87235247911666e-25)
(8.73418655050355e-08 -1.02715089012313e-07 -6.80488582699267e-25)
(1.0823619587834e-07 -1.0316206992457e-07 -4.23189947101495e-25)
(1.297221760685e-07 -1.04590607220291e-07 1.07998736449771e-24)
(1.52468038745457e-07 -1.07114361109401e-07 -5.09397512573757e-25)
(1.77199120570182e-07 -1.10896769934941e-07 -9.5598508460086e-25)
(2.0474132575769e-07 -1.16212031773897e-07 1.99678663694652e-25)
(2.36085914726839e-07 -1.23459646736608e-07 -7.39440360594371e-25)
(2.72425256848908e-07 -1.33240871500128e-07 1.22377809131069e-24)
(3.15236446208455e-07 -1.46483740245705e-07 1.23510668029722e-24)
(3.66406766111288e-07 -1.64577686158278e-07 -8.29178697108573e-25)
(4.28365280158443e-07 -1.89647681680726e-07 -7.92299006917884e-25)
(5.04254736531951e-07 -2.24940556908575e-07 5.67620283153479e-25)
(5.98212354047275e-07 -2.75393598523425e-07 1.69735170231251e-25)
(7.15605305107271e-07 -3.48451202560197e-07 1.18976076355503e-25)
(8.63435723964978e-07 -4.5516598221144e-07 -3.3699358286087e-24)
(1.05055101101586e-06 -6.11231572783078e-07 -1.01607982854264e-24)
(1.28710573817401e-06 -8.37770172119774e-07 -9.77569198625367e-25)
(1.58483701593979e-06 -1.15760635644372e-06 -3.71023749374379e-24)
(1.94641860959367e-06 -1.58168369182648e-06 -1.06855435153357e-24)
(2.36768048861275e-06 -2.05352452724057e-06 -1.24015781488536e-24)
(2.77090912278293e-06 -2.3395075151108e-06 -4.12748960536775e-24)
(3.04585118882726e-06 -1.80437663097445e-06 -1.12868813715449e-24)
(2.78678372273605e-06 4.31271233380126e-07 -9.70161523838939e-25)
(1.9062976152325e-06 4.47740060692824e-06 -4.04737051638663e-24)
(1.51674783826444e-08 5.59506019538084e-06 -3.58107614113976e-25)
(3.57253074595826e-07 6.50387298484144e-06 2.10373538982138e-25)
(-1.40350299726991e-07 5.90943896441621e-06 -5.57229021096943e-25)
(-8.24583977491968e-07 1.77312220925803e-06 5.84860374425384e-25)
(-1.3980858425764e-06 -7.04908362180057e-07 4.41387355974293e-25)
(-1.60160805054265e-06 -1.45960999748318e-06 -2.12493945481085e-26)
(-1.59525667955892e-06 -1.29950750454379e-06 -5.65944415847808e-25)
(-1.45685068881221e-06 -8.81371300836047e-07 1.25131574470285e-25)
(-1.27629852626149e-06 -4.69662076045553e-07 1.41584352488816e-25)
(-1.08844216849488e-06 -1.43934422817378e-07 -6.00147119808657e-25)
(-9.1471003823744e-07 9.52275229131901e-08 -4.05969169869983e-25)
(-7.6117925949591e-07 2.65294049202304e-07 1.76215160409025e-24)
(-6.29242219558765e-07 3.85214249995497e-07 9.60813137985119e-25)
(-5.17364649517029e-07 4.69927877906207e-07 8.64837039912179e-26)
(-4.23048733937159e-07 5.30320896694671e-07 1.19490579379383e-24)
(-3.43629494350213e-07 5.73957295259645e-07 -2.57621310337291e-25)
(-2.76568760735022e-07 6.05998460702003e-07 7.43692438394718e-25)
(-2.19664255731887e-07 6.29919543629277e-07 7.48831380787865e-25)
(-1.71032869821275e-07 6.48043656705319e-07 2.41855150220181e-25)
(-1.29105854326003e-07 6.61929467538526e-07 7.42099358518398e-25)
(-9.25769031293515e-08 6.72634535924562e-07 -1.82231517789589e-25)
(-6.0345035096047e-08 6.80870996560086e-07 3.57704935829389e-25)
(-3.14846173735608e-08 6.87123396051061e-07 -2.38332736943126e-25)
(-5.18557912780991e-09 6.91720927366304e-07 3.22310440214319e-25)
(1.92695801824432e-08 6.94879657197778e-07 5.12556219037542e-25)
(4.25408614518765e-08 6.96741328621526e-07 -1.30533977160473e-25)
(6.52466943036292e-08 6.97350828472861e-07 2.03288402223837e-25)
(8.79949910514578e-08 6.96715462136375e-07 -1.58571024716907e-25)
(1.11406707430908e-07 6.94787201923813e-07 9.89217126793922e-25)
(1.36131097961142e-07 6.91424802347154e-07 5.76226479406643e-26)
(1.62881750777039e-07 6.8641686098592e-07 -7.42832454571838e-25)
(1.92448383970559e-07 6.79437614428465e-07 3.04297195856015e-25)
(2.25755300404573e-07 6.7000620781006e-07 -7.81281464057812e-25)
(2.63881212512473e-07 6.57414436540602e-07 7.29714602832623e-25)
(3.08118672885509e-07 6.4060087456591e-07 8.089208282287e-25)
(3.60022928059117e-07 6.17994269497377e-07 -6.47866950053331e-25)
(4.21447755352434e-07 5.8726326016875e-07 -2.6883769212808e-25)
(4.94580903941121e-07 5.44928601517487e-07 1.07982490031464e-25)
(5.81939393289517e-07 4.85836870889698e-07 -3.41148472075382e-26)
(6.86160684182908e-07 4.02412644069653e-07 2.1860597577506e-25)
(8.09762796628896e-07 2.83717128033786e-07 -1.8025783108874e-24)
(9.54259468867272e-07 1.14686904008065e-07 -7.95261319926685e-25)
(1.11832765449156e-06 -1.23992578747674e-07 -7.90808650881051e-25)
(1.29586923502983e-06 -4.50877016712856e-07 -2.03228603986676e-24)
(1.465718870853e-06 -8.68094412632456e-07 -8.1977238358382e-25)
(1.59360907309442e-06 -1.30130218426275e-06 -9.03341121031712e-25)
(1.59225134434341e-06 -1.49012569518847e-06 -2.37600290491292e-24)
(1.3892050419259e-06 -7.65074146491033e-07 -8.81981957761702e-25)
(8.29783559595041e-07 1.73263524285454e-06 -7.82952020411195e-25)
(1.72259637139301e-07 5.97339562320313e-06 -2.40847909896574e-24)
(-3.34745086200194e-07 6.62255126222397e-06 -2.30506445484023e-25)
(5.08118561065555e-07 6.72628794655285e-06 4.48285166791386e-25)
(9.77086141646233e-07 6.56320678160982e-06 5.56653739596682e-25)
(4.91987008729515e-07 2.5612877290501e-06 8.51560136105137e-25)
(-2.16240466650581e-07 -2.25593711017607e-08 5.15917689050235e-25)
(-7.17962173482606e-07 -9.35427110052685e-07 2.42154858976611e-25)
(-9.84218342926803e-07 -8.99711034033032e-07 2.04465389284181e-25)
(-1.05887180839079e-06 -5.57100822967522e-07 3.69842125053341e-25)
(-1.02646835172535e-06 -1.83379558811143e-07 4.22005456698914e-25)
(-9.378929176201e-07 1.27326507606712e-07 3.7372777110172e-25)
(-8.28543994185127e-07 3.64017344367916e-07 4.86874808641867e-25)
(-7.16359553277577e-07 5.37747273532383e-07 1.10056366356841e-24)
(-6.10750983523035e-07 6.63886881650565e-07 9.89767470244774e-25)
(-5.15624573719271e-07 7.55451198078083e-07 7.95445130718872e-25)
(-4.31957321296444e-07 8.22377389622469e-07 9.49961605270894e-25)
(-3.59302176934013e-07 8.71841577703827e-07 6.14911046624057e-25)
(-2.96520854058465e-07 9.08879040019783e-07 9.77084939790994e-25)
(-2.42280420972747e-07 9.36977616131721e-07 1.10468300830164e-24)
(-1.95251356885596e-07 9.58547867419853e-07 1.05768513947853e-24)
(-1.54211022090885e-07 9.75244047569106e-07 1.13279592849456e-24)
(-1.18068551806408e-07 9.8820824599414e-07 7.95662108747742e-25)
(-8.58717112212647e-08 9.98232714479155e-07 8.08833421463311e-25)
(-5.67853265012333e-08 1.0058587503858e-06 5.99192070771605e-25)
(-3.00593645138102e-08 1.01147341721374e-06 7.21040468910257e-25)
(-5.02202466139666e-09 1.01531857595465e-06 7.48447524813569e-25)
(1.89489950170702e-08 1.01755285802455e-06 6.14818269433294e-25)
(4.24513375040449e-08 1.01823995417737e-06 6.47067420159471e-25)
(6.60683149732273e-08 1.01739204097485e-06 3.86154679744125e-25)
(9.0386984335139e-08 1.0149342187211e-06 5.02625162956567e-25)
(1.16027271364907e-07 1.01072622321421e-06 2.56824549729232e-25)
(1.43657653540303e-07 1.00450579367215e-06 -2.9147081865077e-27)
(1.74004145029906e-07 9.95913330415873e-07 -2.89808077152335e-27)
(2.07897805378185e-07 9.84400588702601e-07 -3.72942394632282e-25)
(2.46276254245858e-07 9.69182225719771e-07 -2.52643649289815e-26)
(2.90205952818143e-07 9.49115560144817e-07 9.16737576814208e-26)
(3.40892760810192e-07 9.22525200020234e-07 -6.5296009133017e-26)
(3.99638341689111e-07 8.87011546093648e-07 1.60526177204251e-26)
(4.6774332029786e-07 8.39081665289171e-07 -3.05350182528297e-26)
(5.46320660383816e-07 7.73695862048104e-07 -1.7491085380506e-25)
(6.35773931591944e-07 6.8367951187178e-07 -6.98770662028412e-26)
(7.35103214746092e-07 5.59034861740827e-07 -5.22921877223917e-25)
(8.40333790688423e-07 3.86621880473016e-07 -4.44226400027515e-25)
(9.42030255779944e-07 1.5071366667054e-07 -4.38785074869583e-25)
(1.02204767627561e-06 -1.60845235778429e-07 -5.9574529105069e-25)
(1.04486497630734e-06 -5.39876008989417e-07 -4.18561672882625e-25)
(9.59475355543441e-07 -8.97918004011976e-07 -4.58391388082833e-25)
(6.82747507182535e-07 -9.64280856190091e-07 -6.87640197064483e-25)
(1.75237439843919e-07 -8.54696816408944e-08 -4.63265648917586e-25)
(-5.271840954264e-07 2.51154619797864e-06 -2.6661129604101e-25)
(-9.84831342108768e-07 6.61760030857225e-06 -4.49420278412376e-25)
(-4.98992401238029e-07 6.84423524485922e-06 1.65367029532273e-25)
(5.33089532979165e-07 6.38108712919227e-06 5.34600396697944e-25)
(1.52540325890016e-06 6.56305554842963e-06 1.23481857452175e-24)
(1.20314109478813e-06 2.89611122855987e-06 9.05035568915058e-25)
(4.93293991241593e-07 3.29829606484463e-07 4.98941977428791e-25)
(-1.3878216274524e-07 -6.91124566348064e-07 3.58767355579567e-25)
(-5.47195617434516e-07 -7.758279747632e-07 6.02831492862454e-25)
(-7.49224541268572e-07 -5.2033567418828e-07 4.56092396775196e-25)
(-8.14243981055992e-07 -1.99184257531953e-07 5.09571751710528e-25)
(-7.96902883193452e-07 8.41264189809245e-08 8.05933768074447e-25)
(-7.37481986078078e-07 3.0900956746343e-07 8.82154726677497e-25)
(-6.59870139290728e-07 4.79785760387914e-07 6.4373823766335e-25)
(-5.7796293986267e-07 6.07563195838656e-07 9.06856390234969e-25)
(-4.99086181232737e-07 7.02856807676604e-07 1.02250174904801e-24)
(-4.26581083431984e-07 7.74215413802233e-07 6.80097802531813e-25)
(-3.61635077541598e-07 8.28079886304586e-07 9.50033011242261e-25)
(-3.04213936032101e-07 8.69139349140971e-07 9.42930032760594e-25)
(-2.53722944662651e-07 9.00762749970104e-07 1.12522902628105e-24)
(-2.09319705489453e-07 9.25320007990214e-07 1.33424987307954e-24)
(-1.70115684433595e-07 9.44507865741886e-07 1.17463230862047e-24)
(-1.35246547625706e-07 9.59500225858154e-07 1.20771010961379e-24)
(-1.03908654349728e-07 9.71144934749015e-07 9.2608988348996e-25)
(-7.53711890596905e-08 9.80021700903275e-07 9.15209512481863e-25)
(-4.89648747867493e-08 9.86554958947042e-07 8.38975187485591e-25)
(-2.4075925320599e-08 9.91011051540058e-07 7.56894914135805e-25)
(-1.2290510875537e-10 9.93563593246798e-07 8.96679558571128e-25)
(2.34478649618398e-08 9.94297868063417e-07 8.19042244743277e-25)
(4.71830727833978e-08 9.93211887224111e-07 5.8074985345418e-25)
(7.16366222906389e-08 9.90224130371536e-07 1.84202922453371e-25)
(9.73737357064358e-08 9.85185295171319e-07 3.34183797096618e-25)
(1.25007931295134e-07 9.7780969081819e-07 2.88434106997316e-25)
(1.5519374338103e-07 9.67693908854157e-07 -1.61512369532314e-25)
(1.88646303507537e-07 9.54256947914889e-07 -1.24972245956408e-25)
(2.26153280422545e-07 9.36661084619441e-07 -4.13705600917031e-25)
(2.68557084160112e-07 9.13717858927556e-07 -2.90541992716509e-25)
(3.16730923391767e-07 8.83746587858487e-07 2.36451570056598e-25)
(3.71479685073969e-07 8.44348984321086e-07 2.05698710216923e-25)
(4.33358762360369e-07 7.92180981895616e-07 -1.1703336256978e-25)
(5.02370978506711e-07 7.22549899080054e-07 -2.25892101500901e-25)
(5.77267803179178e-07 6.29004410513858e-07 -1.98759845413225e-25)
(6.5466387413542e-07 5.02959608222607e-07 2.07827529830963e-25)
(7.27124708958597e-07 3.33790749816626e-07 -2.10121645489142e-25)
(7.80639469890604e-07 1.10060671832211e-07 -1.98349772412132e-25)
(7.9097546162635e-07 -1.73596518104173e-07 2.55652383501211e-25)
(7.17488837058774e-07 -4.99432893214533e-07 -1.62367986037652e-25)
(5.04996073887858e-07 -7.69890686559919e-07 -1.66656730558919e-25)
(8.47817736270295e-08 -7.16461578308358e-07 3.01425374389998e-25)
(-5.56938795452606e-07 2.67268315907651e-07 -1.49558491117901e-25)
(-1.26681011048226e-06 2.83938443577808e-06 -2.1096810834568e-26)
(-1.56417915604435e-06 6.60364392429477e-06 5.95538182787433e-25)
(-5.35932007127086e-07 6.4895570602437e-06 2.17013427976005e-25)
(4.91617714274093e-07 5.73818158718506e-06 5.05531742880941e-25)
(1.64978842245679e-06 6.18755602496738e-06 1.53996811990956e-24)
(1.4525164284621e-06 2.9400427804743e-06 8.10960914948873e-25)
(8.25812741729267e-07 4.68017465617971e-07 4.69261961764757e-25)
(1.8696779602824e-07 -6.13803776545577e-07 7.69500250898385e-25)
(-2.63528605730477e-07 -8.00127553342004e-07 9.37629774303161e-25)
(-5.23783855332742e-07 -6.28091139132282e-07 4.51480255169558e-25)
(-6.43388193320933e-07 -3.62860040151751e-07 4.85609235680263e-25)
(-6.72218821719845e-07 -1.12224901354453e-07 1.04630758969753e-24)
(-6.48823274698667e-07 9.56821761699107e-08 9.78332040771642e-25)
(-5.98452291885082e-07 2.59219503366159e-07 1.40696769205284e-25)
(-5.36656465141835e-07 3.85319165661348e-07 6.3800004126961e-25)
(-4.72485857475901e-07 4.81881049267254e-07 1.04037469247114e-24)
(-4.10685152520733e-07 5.55882257368707e-07 2.71548115212343e-25)
(-3.53540915970185e-07 6.12864282581433e-07 1.02528824072578e-24)
(-3.01825546413489e-07 6.5703524251424e-07 7.60418963089288e-25)
(-2.55535363331401e-07 6.91525826598892e-07 9.08217512188118e-25)
(-2.14251610910821e-07 7.18614504673506e-07 1.35256469763215e-24)
(-1.77381406752053e-07 7.3994927200663e-07 1.01273592906537e-24)
(-1.44271107776248e-07 7.5672997066234e-07 1.32205464288045e-24)
(-1.1427021389708e-07 7.69807101004335e-07 8.45537272175003e-25)
(-8.67570162855227e-08 7.79804232551647e-07 1.05918821286945e-24)
(-6.11392992229622e-08 7.87155427770588e-07 7.13923319815409e-25)
(-3.68707368166588e-08 7.92149694116125e-07 6.37941322786025e-25)
(-1.34195048231039e-08 7.94976532554735e-07 1.03236661655316e-24)
(9.72311051397781e-09 7.9572261105512e-07 7.46455867022124e-25)
(3.30558737069654e-08 7.94392998039804e-07 7.0819949841691e-25)
(5.70917865739641e-08 7.90900353145736e-07 -1.69809730563801e-25)
(8.23483602907783e-08 7.85068657641617e-07 2.56456991520894e-25)
(1.09366563299467e-07 7.76615025488264e-07 5.09154237083672e-25)
(1.38722444367178e-07 7.65098574101449e-07 -3.63528959146504e-25)
(1.71024896829626e-07 7.49924278437689e-07 1.42045298585159e-25)
(2.06905503468336e-07 7.3023087108368e-07 -6.54346805314599e-25)
(2.4700083125121e-07 7.04828970999793e-07 -6.01570479610053e-25)
(2.91874940297156e-07 6.72065119465225e-07 4.70883103956031e-25)
(3.41911709652875e-07 6.29651747974063e-07 2.37983605922128e-25)
(3.97082576233452e-07 5.74480235596653e-07 -9.54126857807345e-26)
(4.56564126154912e-07 5.02343351740054e-07 -2.23284842879116e-25)
(5.1801027979568e-07 4.07693062187205e-07 -3.99570430115993e-25)
(5.76610071993838e-07 2.83546248652043e-07 5.44004121237526e-25)
(6.2316865554521e-07 1.2190315686492e-07 -1.35301429161394e-26)
(6.41979184079252e-07 -8.44470631145785e-08 4.94554149590597e-27)