/*--------------------------------*- C++ -*----------------------------------*\
  =========                 |
  \\      /  F ield         | OpenFOAM: The Open Source CFD Toolbox
   \\    /   O peration     | Website:  https://openfoam.org
    \\  /    A nd           | Version:  10
     \\/     M anipulation  |
\*---------------------------------------------------------------------------*/
FoamFile
{
    format      ascii;
    class       volScalarField;
    location    "8.4";
    object      wallHeatFlux;
}
// * * * * * * * * * * * * * * * * * * * * * * * * * * * * * * * * * * * * * //

dimensions      [1 0 -3 0 0 0 0];

internalField   uniform 0;

boundaryField
{
    back
    {
        type            calculated;
        value           uniform 0;
    }
    bottom
    {
        type            calculated;
        value           nonuniform List<scalar> 
50
(
71.3301933621717
71.9213508462872
74.2425520383041
76.1447911744276
77.4268460328856
78.2316536061911
78.7198739145665
79.0081475549425
79.1734732982105
79.2653441178516
79.3143606606016
79.3396258601326
79.3521652462337
79.3580961312887
79.3608120234014
79.3619651792654
79.3624884391626
79.3626773817884
79.3627254188128
79.3627489438711
79.3627514577503
79.3627490719242
79.3627451662574
79.3627495452295
79.3627468771209
79.3627456955293
79.3627505711624
79.3627551953098
79.3627626676988
79.3627691475397
79.3627660755305
79.3627536188008
79.3626693733495
79.362444448038
79.3618907603382
79.3605941830044
79.3576906853523
79.3513861407746
79.3384385849183
79.3125180125682
79.262688202213
79.170313502233
79.004908721913
78.717648560155
78.2322244679015
77.4301034675915
76.1468730159483
74.2342343093483
71.9024319676842
71.3506547102748
)
;
    }
    left
    {
        type            calculated;
        value           uniform 0;
    }
    front
    {
        type            calculated;
        value           uniform 0;
    }
    right
    {
        type            calculated;
        value           uniform 0;
    }
    top
    {
        type            calculated;
        value           uniform 0;
    }
}


// ************************************************************************* //
