/*--------------------------------*- C++ -*----------------------------------*\
  =========                 |
  \\      /  F ield         | OpenFOAM: The Open Source CFD Toolbox
   \\    /   O peration     | Website:  https://openfoam.org
    \\  /    A nd           | Version:  10
     \\/     M anipulation  |
\*---------------------------------------------------------------------------*/
FoamFile
{
    format      ascii;
    class       volScalarField;
    location    "7.6";
    object      alphat;
}
// * * * * * * * * * * * * * * * * * * * * * * * * * * * * * * * * * * * * * //

dimensions      [1 -1 -1 0 0 0 0];

internalField   nonuniform List<scalar> 
2500
(
6.77212527299755e-15
1.33180490114176e-13
5.69982641988119e-13
9.91051579850187e-13
1.35764047771981e-12
1.65645931446868e-12
1.88518044099642e-12
2.04979682413052e-12
2.16137081629845e-12
2.23270799821976e-12
2.27581412495899e-12
2.30047916850962e-12
2.31387027421474e-12
2.32078246341266e-12
2.32418130179039e-12
2.32577632245162e-12
2.32649186344477e-12
2.32679908692163e-12
2.32692537519917e-12
2.32697498626235e-12
2.32699349047293e-12
2.3269999206466e-12
2.32700189144048e-12
2.32700232110991e-12
2.3270022611273e-12
2.32700202697411e-12
2.32700158284938e-12
2.32700044686049e-12
2.32699723988904e-12
2.32698834621579e-12
2.3269646775433e-12
2.3269042577092e-12
2.3267560541837e-12
2.32640647791311e-12
2.32561388337282e-12
2.32388840622587e-12
2.3202869910685e-12
2.31309280121848e-12
2.29936480876265e-12
2.27439153389865e-12
2.23117113904091e-12
2.16015821980113e-12
2.04961755454359e-12
1.88692121882496e-12
1.66092335070198e-12
1.36512020799538e-12
1.00079151670618e-12
5.7952427508862e-13
1.37062648718723e-13
7.08601660190145e-15
6.72375811778621e-13
3.46857835953679e-11
1.5154195544845e-10
2.63681891543999e-10
3.61449122027855e-10
4.41327574608408e-10
5.02647540265725e-10
5.46935237329925e-10
5.7707244470487e-10
5.96426606564628e-10
6.08177642165472e-10
6.14935845821225e-10
6.18624654661053e-10
6.20539309730561e-10
6.21486149184012e-10
6.21933071010138e-10
6.22134746671733e-10
6.22221858066407e-10
6.22257887502979e-10
6.22272134933609e-10
6.22277489751339e-10
6.22279370313043e-10
6.22279958113644e-10
6.2228009493345e-10
6.22280085427589e-10
6.22280021113894e-10
6.22279892589792e-10
6.22279560424516e-10
6.22278627439679e-10
6.22276057406889e-10
6.22269260074334e-10
6.22252007800156e-10
6.22209921051557e-10
6.22111182392342e-10
6.21888505246497e-10
6.21406298793594e-10
6.20405122824293e-10
6.18415549957039e-10
6.14638354261747e-10
6.07801048899556e-10
5.96024218766991e-10
5.76761643647127e-10
5.46903036857502e-10
5.03124975985189e-10
4.42520744338571e-10
3.63428111148545e-10
2.66242463378888e-10
1.5403812606448e-10
3.56764290168439e-11
7.02368393084794e-13
2.39054857465637e-12
6.24694341766807e-10
2.14564406166425e-07
3.72692055536703e-07
5.09719902022307e-07
6.21321028388114e-07
7.06854442071526e-07
7.68615472086987e-07
8.10684078903705e-07
8.37753970846594e-07
8.54235029878728e-07
8.63745330725167e-07
8.68956001555653e-07
8.71671707837875e-07
8.7302054070899e-07
8.73660105329705e-07
8.73950073133601e-07
8.74075932632962e-07
8.74128254845438e-07
8.74149060701378e-07
8.74156932381957e-07
8.74159722648122e-07
8.74160609828804e-07
8.74160827270432e-07
8.7416082341233e-07
8.7416073423445e-07
8.74160546735305e-07
8.74160058345631e-07
8.74158692248554e-07
8.7415494802281e-07
8.7414508838984e-07
8.74120160904315e-07
8.74059571230214e-07
8.73917924948437e-07
8.73599595503215e-07
8.72912642003218e-07
8.71491253562462e-07
8.68676129063262e-07
8.63349016501256e-07
8.53735648782517e-07
8.37222906446289e-07
8.10276381268748e-07
7.68576481830634e-07
7.07486162036189e-07
6.2289253632914e-07
5.12322299142813e-07
3.76055133419062e-07
2.17833333723437e-07
6.40949599403169e-10
2.48108693328097e-12
4.23963782749211e-12
1.1157073180727e-09
3.84546530229284e-07
6.65609064897713e-07
9.07700534378249e-07
1.10396463834143e-06
1.25388080244295e-06
1.36188782069435e-06
1.43536199904717e-06
1.48261590149749e-06
1.51138792555796e-06
1.52799943212268e-06
1.53710870433973e-06
1.54186160529733e-06
1.54422538868544e-06
1.54534787624981e-06
1.5458576331885e-06
1.54607929249316e-06
1.54617162596126e-06
1.54620842760226e-06
1.54622239168781e-06
1.54622736253605e-06
1.54622895534249e-06
1.54622935432339e-06
1.54622935571928e-06
1.54622920588147e-06
1.54622888208358e-06
1.54622803557449e-06
1.54622566664349e-06
1.54621917077893e-06
1.54620205327717e-06
1.54615874197061e-06
1.54605338514022e-06
1.54580690255523e-06
1.54525260800739e-06
1.54405577045898e-06
1.5415781979652e-06
1.53666929743381e-06
1.52737682229476e-06
1.51060152476161e-06
1.48177407540487e-06
1.43470131196812e-06
1.36178313992044e-06
1.25479388949799e-06
1.10630663922133e-06
9.11607256879584e-07
6.70653985327922e-07
3.89402604417379e-07
1.13932505261366e-09
4.36879910746934e-12
6.06514432758284e-12
1.59697897786206e-09
5.49178961958672e-07
9.47456451351537e-07
1.28875141053411e-06
1.564353630882e-06
1.77427435227823e-06
1.92522662826696e-06
2.02780410703793e-06
2.09374645883547e-06
2.13389998501702e-06
2.15709283530508e-06
2.16982044396226e-06
2.17646764553036e-06
2.17977732699517e-06
2.18135105747186e-06
2.18206679141088e-06
2.18237852870952e-06
2.18250862696402e-06
2.18256059534955e-06
2.18258037093365e-06
2.18258744108024e-06
2.18258972500328e-06
2.18259030906303e-06
2.18259032374852e-06
2.18259012437898e-06
2.18258967791696e-06
2.18258850568492e-06
2.18258522453399e-06
2.18257622459643e-06
2.18255249345374e-06
2.18249239874534e-06
2.18234608807804e-06
2.18200350537231e-06
2.18123249838472e-06
2.17956657020416e-06
2.17611581977979e-06
2.16927507605267e-06
2.15631948337356e-06
2.13292060903331e-06
2.09269065152725e-06
2.02695635632417e-06
1.92503816864354e-06
1.77530067751109e-06
1.56708791116961e-06
1.29335190462251e-06
9.53399558463808e-07
5.54870549691051e-07
1.62467482325806e-09
6.21812956744922e-12
7.81511040581699e-12
2.05796672571342e-09
7.05657323872253e-07
1.2137491510395e-06
1.64718201906154e-06
1.99599438315172e-06
2.26103400303265e-06
2.45132122480174e-06
2.58051456462028e-06
2.66354025920307e-06
2.71410169519808e-06
2.74331909066567e-06
2.75936400730266e-06
2.7677513058536e-06
2.77193189510299e-06
2.77392219335139e-06
2.77482864378209e-06
2.77522406713647e-06
2.77538938800762e-06
2.77545557046226e-06
2.77548082846483e-06
2.77548989993512e-06
2.77549285628173e-06
2.77549362858902e-06
2.77549366534409e-06
2.77549342719748e-06
2.77549287098232e-06
2.7754914034025e-06
2.7754872968003e-06
2.77547603460916e-06
2.77544632838938e-06
2.77537105576915e-06
2.77518765596029e-06
2.77475790651465e-06
2.77379003561081e-06
2.77169738989582e-06
2.76736028143428e-06
2.75875815991518e-06
2.74245956682024e-06
2.7130107827863e-06
2.66235680462597e-06
2.57954472003623e-06
2.45105053566888e-06
2.26205912161973e-06
1.99884286227347e-06
1.65201899371365e-06
1.22000858637459e-06
7.11650187870275e-07
2.08752257886013e-09
7.98183289938943e-12
9.45787877160236e-12
2.49083379063574e-09
8.51732047832928e-07
1.46101263775142e-06
1.97870250329058e-06
2.39409455241846e-06
2.70907410160323e-06
2.93491963539534e-06
3.0881472525504e-06
3.1865969037392e-06
3.24656065277277e-06
3.2812267278894e-06
3.30027666071968e-06
3.31024336480779e-06
3.31521626821946e-06
3.31758654147229e-06
3.318667473026e-06
3.31913971779013e-06
3.31933750077905e-06
3.31941684885809e-06
3.31944722061214e-06
3.31945818039071e-06
3.31946178622508e-06
3.31946274978985e-06
3.3194628167518e-06
3.31946254905402e-06
3.31946189518895e-06
3.31946016108453e-06
3.31945531272351e-06
3.31944202472586e-06
3.3194069735859e-06
3.31931811943474e-06
3.31910149820695e-06
3.31859357265072e-06
3.31744891411709e-06
3.31497260454285e-06
3.30983771251965e-06
3.29964876680874e-06
3.28033609603344e-06
3.2454288647437e-06
3.18536352173802e-06
3.08712045316198e-06
2.93458724916513e-06
2.710033518053e-06
2.39687092291658e-06
1.98345613244155e-06
1.46717801475571e-06
8.57653601773945e-07
2.52070737020763e-09
9.63106288633108e-12
1.09717548231229e-11
2.89002878137441e-09
9.85812163531324e-07
1.68691047249098e-06
2.28055379595856e-06
2.75568722793332e-06
3.11534208176422e-06
3.37294225342749e-06
3.5476179802717e-06
3.65983327585699e-06
3.7281946048593e-06
3.76773314379441e-06
3.7894747407007e-06
3.80085898906831e-06
3.80654465843008e-06
3.80925765659677e-06
3.81049643158166e-06
3.81103840825654e-06
3.81126577618039e-06
3.81135718454807e-06
3.81139227513446e-06
3.81140499859752e-06
3.81140922592131e-06
3.81141038261178e-06
3.81141048839449e-06
3.81141019807394e-06
3.81140945768176e-06
3.81140748419426e-06
3.81140197387877e-06
3.81138688744846e-06
3.81134710146302e-06
3.81124621904121e-06
3.81100015656079e-06
3.81042287839486e-06
3.80912120822575e-06
3.80630378514484e-06
3.80045890689992e-06
3.78885661363218e-06
3.76685753992883e-06
3.72708244591343e-06
3.65861944202185e-06
3.54659908762874e-06
3.37258557167682e-06
3.11621640859728e-06
2.75828816757178e-06
2.28502731404177e-06
1.69272028335419e-06
9.91421215586526e-07
2.91918254028749e-09
1.11461780133768e-11
1.23432121354355e-11
3.25205760316041e-09
1.10695008773601e-06
1.89017842922742e-06
2.55138382691918e-06
3.07945624260197e-06
3.47860474446672e-06
3.76424086398674e-06
3.95784577291349e-06
4.08221394364045e-06
4.15799551815723e-06
4.20184517175257e-06
4.22597238649867e-06
4.23861555089803e-06
4.24493569951077e-06
4.2479545816458e-06
4.24933465046756e-06
4.2499392598193e-06
4.25019330839883e-06
4.25029564982357e-06
4.2503350502968e-06
4.25034940461051e-06
4.25035421996602e-06
4.25035557000913e-06
4.25035572248064e-06
4.25035541533415e-06
4.25035459874701e-06
4.2503524112883e-06
4.25034631424693e-06
4.2503296445906e-06
4.25028570340709e-06
4.25017427355974e-06
4.24990238561837e-06
4.249264221479e-06
4.24782457150296e-06
4.24470709224273e-06
4.2382371427574e-06
4.22538962842322e-06
4.20102230162909e-06
4.15695374834009e-06
4.08108080086699e-06
3.95689803332715e-06
3.76391045811583e-06
3.47941227951155e-06
3.08184893185653e-06
2.55548509633763e-06
1.89549618640394e-06
1.11211314062681e-06
3.27985810908761e-09
1.25153291600031e-11
1.35657185421572e-11
3.57521014993803e-09
1.21475935423328e-06
2.07045946054533e-06
2.79100539191483e-06
3.36543175068847e-06
3.79909778679531e-06
4.10921630117777e-06
4.31934963548682e-06
4.4543348865718e-06
4.53660555109668e-06
4.58423065855747e-06
4.61045074430727e-06
4.62420061276976e-06
4.63107983471971e-06
4.63436895741681e-06
4.63587422575305e-06
4.63653452213988e-06
4.63681238918309e-06
4.63692454218633e-06
4.63696783979881e-06
4.63698368698614e-06
4.63698905194254e-06
4.63699059181103e-06
4.63699079689943e-06
4.63699048011336e-06
4.63698959674999e-06
4.6369872190983e-06
4.63698060568132e-06
4.63696255398016e-06
4.63691500005224e-06
4.63679441158508e-06
4.63650009720949e-06
4.63580902573623e-06
4.6342493736688e-06
4.63087070595736e-06
4.62385622683287e-06
4.60992322616637e-06
4.58349035632357e-06
4.53567559371594e-06
4.45333498751933e-06
4.31853284642632e-06
4.10897117055673e-06
3.79988527127973e-06
3.36763872983159e-06
2.79472549809635e-06
2.07524823569759e-06
1.2194285623954e-06
3.60134990920155e-09
1.37333833971409e-11
1.46385758889439e-11
3.85926561973721e-09
1.30931501872015e-06
2.22812309585296e-06
3.00014625507372e-06
3.61468677498855e-06
4.07818374940435e-06
4.40945003560659e-06
4.6338629589814e-06
4.77802718928604e-06
4.86591436171319e-06
4.9168121374915e-06
4.94484966719759e-06
4.9595626064586e-06
4.96692949261555e-06
4.97045496201555e-06
4.97207005229623e-06
4.97277936216096e-06
4.97307827876329e-06
4.97319914850568e-06
4.97324593465804e-06
4.97326313455417e-06
4.97326900759994e-06
4.97327073094228e-06
4.97327099293458e-06
4.97327067235551e-06
4.97326973093226e-06
4.97326718535868e-06
4.97326012100564e-06
4.97324087349612e-06
4.9731902083666e-06
4.97306174632691e-06
4.97274815560466e-06
4.97201158530712e-06
4.97034865683748e-06
4.9667450274665e-06
4.95926120933708e-06
4.94439205201276e-06
4.91617696386337e-06
4.86512872175495e-06
4.77720417605989e-06
4.63323143512166e-06
4.40935245194014e-06
4.0790164435947e-06
3.61676990257114e-06
3.00353731205743e-06
2.23242005444026e-06
1.31350718562553e-06
3.8836918330424e-09
1.48007836308873e-11
1.55658070516306e-11
4.10521420897618e-09
1.39106053194725e-06
2.36410539638423e-06
3.18023528534222e-06
3.82908331661992e-06
4.31807001846786e-06
4.66740331830737e-06
4.90402051377638e-06
5.05603651120127e-06
5.14873410727456e-06
5.20243928576226e-06
5.2320387912173e-06
5.24758119289859e-06
5.2553690927594e-06
5.25909914965807e-06
5.26080958768532e-06
5.26156159622432e-06
5.26187892523367e-06
5.26200745986249e-06
5.26205733679245e-06
5.2620757496149e-06
5.26208208747086e-06
5.26208398552446e-06
5.26208430634979e-06
5.26208398658635e-06
5.26208299515634e-06
5.26208030255916e-06
5.26207284785159e-06
5.26205257544572e-06
5.26199925784652e-06
5.26186409710955e-06
5.26153411275178e-06
5.26075883323326e-06
5.25900798132039e-06
5.25521269492178e-06
5.2473287579652e-06
5.23166107585498e-06
5.20192514937231e-06
5.14811681973991e-06
5.05542483953295e-06
4.90362113262955e-06
4.66751382691413e-06
4.31902208649451e-06
3.83112830936533e-06
3.18338925285218e-06
2.36799782735936e-06
1.39483752842058e-06
4.12806111497666e-09
1.57224379658451e-11
1.63551273735375e-11
4.31500235654062e-09
1.46072509005026e-06
2.47977233998485e-06
3.3332246358207e-06
4.01106497575238e-06
4.52158123176108e-06
4.88617628675659e-06
5.13310910471375e-06
5.29176855667543e-06
5.38854185048668e-06
5.44462959221713e-06
5.4755572585063e-06
5.49180649473097e-06
5.49995403502923e-06
5.50385932496736e-06
5.50565167476197e-06
5.5064404904481e-06
5.50677375614629e-06
5.50690895996111e-06
5.50696154634325e-06
5.50698103500996e-06
5.50698779355396e-06
5.50698985557475e-06
5.50699023479767e-06
5.50698991936863e-06
5.50698888543984e-06
5.50698606541727e-06
5.50697827612364e-06
5.50695713427847e-06
5.50690157932434e-06
5.50676078155694e-06
5.50641700943637e-06
5.50560916484757e-06
5.50378430107766e-06
5.49982757467488e-06
5.49160639468877e-06
5.47526532659547e-06
5.4442464003885e-06
5.38810900123573e-06
5.29139338351449e-06
5.13297968798797e-06
4.886549337004e-06
4.52272720185385e-06
4.0131676162305e-06
3.33625443435595e-06
2.48337632003297e-06
1.46417629364793e-06
4.33652827190126e-09
1.65066979780308e-11
1.70169867712523e-11
4.49129392175749e-09
1.5192482487479e-06
2.57679864849676e-06
3.46143492934097e-06
4.16347864102907e-06
4.69196519661986e-06
5.06930363919364e-06
5.32485679184657e-06
5.48907435612504e-06
5.58926251751245e-06
5.64734999691448e-06
5.67939463891949e-06
5.69623964365717e-06
5.70469106043932e-06
5.70874481502094e-06
5.71060677340123e-06
5.71142697520087e-06
5.71177388595793e-06
5.71191482990934e-06
5.71196976560786e-06
5.7119901978508e-06
5.71199733248961e-06
5.71199954547287e-06
5.71199998141898e-06
5.7119996733646e-06
5.71199860393232e-06
5.71199567478638e-06
5.71198760186504e-06
5.71196573060404e-06
5.71190830975733e-06
5.71176282285558e-06
5.71140758925068e-06
5.71057266857675e-06
5.70868623421566e-06
5.70459512064248e-06
5.69609304474004e-06
5.67919082711037e-06
5.64710235188049e-06
5.58902288359332e-06
5.48895169672299e-06
5.32502502784068e-06
5.06998419661305e-06
4.6933730379713e-06
4.16573338793175e-06
3.46445870697202e-06
2.58024114204678e-06
1.52247557798345e-06
4.5118253922851e-09
1.71644193676227e-11
1.75636679762945e-11
4.63724207413267e-09
1.56770920572846e-06
2.65705614933147e-06
3.56741420430977e-06
4.28941314132836e-06
4.8327179924179e-06
5.22057094483128e-06
5.4832436520342e-06
5.65205762961785e-06
5.75507424948181e-06
5.81482109498319e-06
5.84779450528185e-06
5.86513602574117e-06
5.87384133074757e-06
5.87801946941258e-06
5.87993992412053e-06
5.88078659281313e-06
5.8811450571829e-06
5.88129088687149e-06
5.88134783687598e-06
5.88136908721958e-06
5.88137655383291e-06
5.88137890374972e-06
5.88137939372474e-06
5.88137909523607e-06
5.88137799674495e-06
5.88137497544214e-06
5.88136666503661e-06
5.88134418914031e-06
5.88128523088452e-06
5.88113589062637e-06
5.88077124547025e-06
5.87991408780031e-06
5.87797706022069e-06
5.87377545083619e-06
5.86504228246576e-06
5.84767818493065e-06
5.81470904675141e-06
5.7550300901479e-06
5.65219485258837e-06
5.48372668819448e-06
5.22159230010379e-06
4.83444412814407e-06
4.29190456200115e-06
3.57054323527148e-06
2.66046101944027e-06
1.57081517047507e-06
4.6571274440865e-09
1.77080909317813e-11
1.80084487963436e-11
4.75627429201959e-09
1.60726083612218e-06
2.72251080177003e-06
3.65380860227856e-06
4.3920517948591e-06
4.94742436345158e-06
5.34384709375908e-06
5.61232917536807e-06
5.78489906299441e-06
5.89023081631243e-06
5.95133848003817e-06
5.98507518598503e-06
6.00282572140292e-06
6.01174070999471e-06
6.01602186490453e-06
6.0179909170282e-06
6.01885965067145e-06
6.01922778678609e-06
6.01937772779294e-06
6.01943638514592e-06
6.01945833655091e-06
6.01946609262779e-06
6.01946856503382e-06
6.01946910539719e-06
6.01946881789198e-06
6.01946769622872e-06
6.01946459834131e-06
6.01945609180088e-06
6.01943312120015e-06
6.01937291245697e-06
6.01922044633396e-06
6.01884817225508e-06
6.01797298644163e-06
6.01599491932399e-06
6.01170362227764e-06
6.00278276732711e-06
5.98504335560627e-06
5.95135833335152e-06
5.89037881878574e-06
5.78529574117809e-06
5.6131339215338e-06
5.34522993989684e-06
4.94951072408747e-06
4.39484894993624e-06
3.65713895849935e-06
2.72598888467332e-06
1.61033979904269e-06
4.77584819270764e-09
1.8151036587527e-11
1.83648537610567e-11
4.85189799047707e-09
1.63907040073001e-06
2.77513083956505e-06
3.72324744177021e-06
4.47454156109768e-06
5.03961612924971e-06
5.44293562620226e-06
5.71609904632044e-06
5.89170025455015e-06
5.99890385663369e-06
6.06111399473379e-06
6.09547046479905e-06
6.11355391128172e-06
6.12264002004372e-06
6.12700548730113e-06
6.129014439101e-06
6.12990135292603e-06
6.13027749116243e-06
6.13043085159391e-06
6.13049093923385e-06
6.13051348429214e-06
6.13052148965345e-06
6.13052407008221e-06
6.13052465661427e-06
6.13052438098578e-06
6.1305232414718e-06
6.13052008111608e-06
6.13051141506581e-06
6.13048804546403e-06
6.13042683376678e-06
6.13027186692706e-06
6.12989349379023e-06
6.12900389162381e-06
6.12699298680779e-06
6.1226298759013e-06
6.1135586390369e-06
6.09551834256965e-06
6.06125915403587e-06
5.99923621358626e-06
5.89234933953398e-06
5.7172231438603e-06
5.44468834005651e-06
5.04208915399353e-06
4.47769520950963e-06
3.72685526970091e-06
2.77877392153614e-06
1.64220299034357e-06
4.87145717287167e-09
1.85067111161447e-11
1.86460226367959e-11
4.92753477778005e-09
1.66426913349747e-06
2.81680914466958e-06
3.77824638562606e-06
4.53988292225905e-06
5.11265304842212e-06
5.52144960336773e-06
5.79833613059384e-06
5.97635225893322e-06
6.0850499371767e-06
6.14814192171895e-06
6.18299528396943e-06
6.20134631648106e-06
6.21057034507044e-06
6.21500396870509e-06
6.21704527949622e-06
6.21794699122901e-06
6.21832967050129e-06
6.21848584085172e-06
6.21854711236346e-06
6.21857015408764e-06
6.21857837146429e-06
6.21858104589781e-06
6.21858167416202e-06
6.21858141087844e-06
6.21858025825382e-06
6.2185770480555e-06
6.21856825455578e-06
6.21854456831109e-06
6.21848256468491e-06
6.21832562778823e-06
6.21794245212289e-06
6.21704149342976e-06
6.21500470056143e-06
6.21058492611264e-06
6.20139493894838e-06
6.18311688556928e-06
6.14840374849778e-06
6.08555551265842e-06
5.97724150840481e-06
5.79976947499723e-06
5.52356955932236e-06
5.11552438277815e-06
4.54342520397228e-06
3.78218636888914e-06
2.82068741482362e-06
1.66751951653091e-06
4.94732465784283e-09
1.87881122391274e-11
1.88642138966122e-11
4.98638869009373e-09
1.68391220220488e-06
2.84930196481536e-06
3.82113124670504e-06
4.59084337119305e-06
5.16962927331447e-06
5.58271335495945e-06
5.86251914512169e-06
6.0424323023422e-06
6.15230606754951e-06
6.21609378841787e-06
6.25134014557074e-06
6.26990338000781e-06
6.27923709802096e-06
6.28372509631283e-06
6.28579231055612e-06
6.28670591284697e-06
6.28709387111644e-06
6.28725232161513e-06
6.28731456092009e-06
6.28733801308915e-06
6.28734640858982e-06
6.28734916385993e-06
6.28734982938901e-06
6.28734957855932e-06
6.28734841696883e-06
6.28734516806314e-06
6.28733627485597e-06
6.28731234209902e-06
6.28724972455808e-06
6.28709126320932e-06
6.28670437160193e-06
6.28579461898523e-06
6.28373775766888e-06
6.27927400751865e-06
6.26999176342037e-06
6.25152882999085e-06
6.21646243896888e-06
6.15297159446251e-06
6.04354586270503e-06
5.86424580190315e-06
5.58518902118499e-06
5.17289779734804e-06
4.59478947167895e-06
3.82543764936864e-06
2.85346431606758e-06
1.68732774136813e-06
5.00659912317708e-09
1.90073230553402e-11
1.90304464947306e-11
5.03134975297769e-09
1.69894938365018e-06
2.87418436560902e-06
3.85398286032405e-06
4.62989498940535e-06
5.21330594580549e-06
5.62969171874754e-06
5.9117496813849e-06
6.09312938049215e-06
6.20391441056003e-06
6.26824254437885e-06
6.30379498125965e-06
6.3225239661843e-06
6.33194362954865e-06
6.33647437521307e-06
6.33856202801764e-06
6.33948505021551e-06
6.33987721014116e-06
6.34003748595145e-06
6.34010050605432e-06
6.34012429315548e-06
6.34013283653446e-06
6.3401356605606e-06
6.34013635902282e-06
6.34013612050936e-06
6.34013495352974e-06
6.34013167560732e-06
6.34012270646349e-06
6.34009858641491e-06
6.340035503939e-06
6.33987588929437e-06
6.33948618469865e-06
6.338569765324e-06
6.33649766367164e-06
6.33200046082588e-06
6.32264792776679e-06
6.304043948968e-06
6.26870775674063e-06
6.20472566038441e-06
6.09444941829569e-06
5.91375001506057e-06
5.63250524963847e-06
5.21696070930491e-06
4.63424620928456e-06
3.85867244537329e-06
2.87866080385853e-06
1.7025620972093e-06
5.05211800181123e-09
1.91751853767385e-11
1.9154269419185e-11
5.06493051680647e-09
1.71020572367686e-06
2.89282119180243e-06
3.87860144133604e-06
4.65917430126005e-06
5.24606798039065e-06
5.66494473918371e-06
5.94870550704696e-06
6.13119664378253e-06
6.24267408350165e-06
6.30741400328337e-06
6.34320038176367e-06
6.36205646953679e-06
6.37154227129723e-06
6.37610603745383e-06
6.37820954290509e-06
6.37913990452741e-06
6.37953535522296e-06
6.37969706983511e-06
6.37976071073948e-06
6.37978476750514e-06
6.37979343220244e-06
6.37979631413025e-06
6.37979704147252e-06
6.37979681498419e-06
6.37979564565482e-06
6.3797923470448e-06
6.37978332217565e-06
6.37975906461899e-06
6.37969564145764e-06
6.37953518160711e-06
6.37914341149228e-06
6.37822208329611e-06
6.37613872685411e-06
6.37161675038889e-06
6.36221203356681e-06
6.34350311176184e-06
6.3079658051124e-06
6.2436169523972e-06
6.13270492233244e-06
5.95095834339599e-06
5.66807477378721e-06
5.25009161158919e-06
4.66392193839024e-06
3.88367753592231e-06
2.89762658247562e-06
1.71403492650804e-06
5.08634914114398e-09
1.9301092023917e-11
1.92436380005073e-11
5.08923041043887e-09
1.71837062594602e-06
2.90635106123858e-06
3.89648728058435e-06
4.68046079543049e-06
5.26990111636159e-06
5.69060370823104e-06
5.97561590647711e-06
6.15892625774332e-06
6.2709156976862e-06
6.33596117505755e-06
6.37192180049198e-06
6.39087294236406e-06
6.40040842048763e-06
6.40499710339055e-06
6.40711263086657e-06
6.40804858907252e-06
6.40844656496137e-06
6.40860939222248e-06
6.4086735182002e-06
6.40869778883646e-06
6.40870655187197e-06
6.40870948214765e-06
6.40871023470201e-06
6.40871001985826e-06
6.40870885071361e-06
6.40870553850705e-06
6.40869647505676e-06
6.40867212191757e-06
6.40860846208613e-06
6.40844741382058e-06
6.40805419923076e-06
6.40712941928568e-06
6.40503810501143e-06
6.4004985224996e-06
6.39105655184069e-06
6.37227241785006e-06
6.33659049166916e-06
6.27197716387138e-06
6.16060557033961e-06
5.97810056866586e-06
5.69402811115369e-06
5.27427330481625e-06
4.68559028809812e-06
3.90194430631092e-06
2.91148948680786e-06
1.72242615788104e-06
5.11135783854385e-09
1.93928768135116e-11
1.93048702994673e-11
5.10592122353804e-09
1.72399335771777e-06
2.91568022198473e-06
3.9088337617842e-06
4.69516949255618e-06
5.28638420489675e-06
5.70836324066464e-06
5.99425357813789e-06
6.17814115030245e-06
6.29049298589906e-06
6.35575580320145e-06
6.39184102818279e-06
6.41086052870037e-06
6.42043194910379e-06
6.42503877663093e-06
6.42716311931338e-06
6.42810321230444e-06
6.42850306990775e-06
6.42866673500854e-06
6.42873123134446e-06
6.42875566849049e-06
6.42876451021974e-06
6.42876748058754e-06
6.42876825510557e-06
6.42876805146157e-06
6.4287668845735e-06
6.42876356476287e-06
6.42875447733355e-06
6.42873006432573e-06
6.42866625617743e-06
6.42850483685636e-06
6.42811070161663e-06
6.42718369484506e-06
6.42508718601852e-06
6.42053598827697e-06
6.4110692114284e-06
6.39223459705009e-06
6.35645495148971e-06
6.29166190433418e-06
6.1799765399464e-06
5.99695166569811e-06
5.71206156384487e-06
5.29108491762431e-06
4.70066434863138e-06
3.91466163839753e-06
2.92114931555447e-06
1.72827887529858e-06
5.12879298949502e-09
1.94567762010863e-11
1.93426553763868e-11
5.11624656062854e-09
1.72748280881777e-06
2.92148287253319e-06
3.91652838627882e-06
4.70435259198965e-06
5.29669130824256e-06
5.7194836550222e-06
6.0059371625207e-06
6.19019759724678e-06
6.30278539722194e-06
6.36819094593796e-06
6.40435875530302e-06
6.42342401028153e-06
6.43301973789213e-06
6.43763897029373e-06
6.43976940909024e-06
6.44071239693649e-06
6.44111359029338e-06
6.44127786004675e-06
6.44134262941996e-06
6.44136719290999e-06
6.44137609666834e-06
6.44137910010248e-06
6.44137989375976e-06
6.44137970083177e-06
6.44137853786529e-06
6.44137521552317e-06
6.44136611674396e-06
6.44134167503778e-06
6.44127779583191e-06
6.44111619514627e-06
6.44072159473364e-06
6.43979342178033e-06
6.4376941010453e-06
6.43313643307825e-06
6.4236555008609e-06
6.40479149697074e-06
6.36895400756368e-06
6.30405311047555e-06
6.19217731422619e-06
6.00883397621812e-06
5.72343915027002e-06
5.30170347152287e-06
4.71019772584107e-06
3.92271633376691e-06
2.92727761402964e-06
1.73199871130937e-06
5.13988551848254e-09
1.94974355030271e-11
1.93600873660742e-11
5.12102861912916e-09
1.72910948261281e-06
2.9242047660563e-06
3.92015770446236e-06
4.70870540405915e-06
5.30159836123845e-06
5.72479812271627e-06
6.01153868749598e-06
6.19599283007504e-06
6.30870578921319e-06
6.37418870542311e-06
6.41040231648496e-06
6.42949355678303e-06
6.43910342934717e-06
6.44373006229228e-06
6.44586423232216e-06
6.44680904059497e-06
6.44721109947432e-06
6.44737577517924e-06
6.447440736276e-06
6.44746539372936e-06
6.44747434685966e-06
6.44747737843548e-06
6.44747818934582e-06
6.44747800671656e-06
6.44747684860799e-06
6.44747352723669e-06
6.4474644270354e-06
6.44743998313558e-06
6.44737610123629e-06
6.44721448988919e-06
6.44681983625962e-06
6.44589145584587e-06
6.4437914702715e-06
6.43923194980919e-06
6.42974638128136e-06
6.41087176108245e-06
6.37501178857493e-06
6.31006656039528e-06
6.19810902230735e-06
6.01462426849128e-06
5.72899923018611e-06
5.30690986924721e-06
4.71488965478009e-06
3.92669711141392e-06
2.93032034930879e-06
1.73385514402189e-06
5.14545279952703e-09
1.95179350362228e-11
1.93587000837145e-11
5.12067562110915e-09
1.72900782420123e-06
2.92406736202692e-06
3.9200130263e-06
4.70857321135602e-06
5.3014907626306e-06
5.72472067556954e-06
6.01149178878686e-06
6.19597334430851e-06
6.30870869414713e-06
6.37420848185835e-06
6.41043393062768e-06
6.42953294944511e-06
6.43914763615485e-06
6.44377709108098e-06
6.44591283791088e-06
6.44685849309439e-06
6.4472609946113e-06
6.44742589961171e-06
6.44749098151843e-06
6.44751570564144e-06
6.44752469808163e-06
6.44752775419615e-06
6.44752858103238e-06
6.4475284082824e-06
6.4475272554907e-06
6.44752393766847e-06
6.44751484458062e-06
6.44749042298163e-06
6.44742660356011e-06
6.44726514611934e-06
6.44687083714702e-06
6.44594317300355e-06
6.44384458263706e-06
6.43928761900606e-06
6.42980645973146e-06
6.41093898102698e-06
6.3750898340202e-06
6.31015988617523e-06
6.19822228543339e-06
6.01476130356786e-06
5.72916162921418e-06
5.30709536395831e-06
4.71509055993602e-06
3.92689900414048e-06
2.930500951672e-06
1.73398310289769e-06
5.14590388623508e-09
1.95198163458702e-11
1.933849768051e-11
5.11518923917346e-09
1.72717833852091e-06
2.92107093496148e-06
3.91609418503684e-06
4.70395548902122e-06
5.29636788659262e-06
5.71925089398316e-06
6.00579649620445e-06
6.19013974335237e-06
6.30279529120185e-06
6.3682519694104e-06
6.40445568539646e-06
6.42354455384986e-06
6.43315490497288e-06
6.43778271296948e-06
6.43991794426683e-06
6.44086350587585e-06
6.44126604368126e-06
6.44143100909795e-06
6.44149614429895e-06
6.44152090913066e-06
6.44152993123708e-06
6.44153300833762e-06
6.44153384970219e-06
6.44153368633733e-06
6.44153253931826e-06
6.44152922781259e-06
6.44152015099713e-06
6.44149577776785e-06
6.44143208963984e-06
6.44127095863482e-06
6.44087740876371e-06
6.43995141736349e-06
6.43785634346465e-06
6.43330645366356e-06
6.42383892625615e-06
6.40499661674766e-06
6.36919198093797e-06
6.30433739936227e-06
6.19252193643749e-06
6.00925038064868e-06
5.72393191234926e-06
5.30226542832493e-06
4.71080534884238e-06
3.92332587102334e-06
2.92782187437234e-06
1.73238359249518e-06
5.14124066805565e-09
1.95030843498667e-11
1.92979706062103e-11
5.10416824430274e-09
1.7234883056524e-06
2.91499525422023e-06
3.90811004909537e-06
4.69450624030209e-06
5.28584328285245e-06
5.70797400025131e-06
5.9940192439425e-06
6.17804668869449e-06
6.2905133336846e-06
6.35586302960936e-06
6.39200939562332e-06
6.41106917223369e-06
6.42066556718192e-06
6.42528705384757e-06
6.42741959326935e-06
6.42836408868752e-06
6.42876624488753e-06
6.42893109783609e-06
6.42899621735187e-06
6.429020996261e-06
6.42903003797443e-06
6.42903313221484e-06
6.42903398653852e-06
6.42903383203918e-06
6.42903269145146e-06
6.42902938966447e-06
6.42902033982277e-06
6.42899604464753e-06
6.42893256503773e-06
6.42877195236988e-06
6.42837961972587e-06
6.42745635326549e-06
6.42536711986002e-06
6.42082923482016e-06
6.41138537454659e-06
6.39258779406408e-06
6.35686412617931e-06
6.29214980081079e-06
6.18056665545374e-06
5.99766287480185e-06
5.71290080332436e-06
5.29203904877049e-06
4.70169260321844e-06
3.91568955714618e-06
2.92206389227553e-06
1.72892336454276e-06
5.13105771918762e-09
1.94662162676258e-11
1.92340719916117e-11
5.08680320560925e-09
1.71767056659082e-06