/*--------------------------------*- C++ -*----------------------------------*\
  =========                 |
  \\      /  F ield         | OpenFOAM: The Open Source CFD Toolbox
   \\    /   O peration     | Website:  https://openfoam.org
    \\  /    A nd           | Version:  10
     \\/     M anipulation  |
\*---------------------------------------------------------------------------*/
FoamFile
{
    format      ascii;
    class       volScalarField;
    location    "7.6";
    object      h;
}
// * * * * * * * * * * * * * * * * * * * * * * * * * * * * * * * * * * * * * //

dimensions      [0 2 -2 0 0 0 0];

internalField   nonuniform List<scalar> 
2500
(
6254.96868761689
6251.412577219
6241.13273534067
6233.12984724531
6227.95793531609
6224.83255784283
6223.00732569142
6221.97036086755
6221.39986214135
6221.09832039384
6220.94390080432
6220.86827185536
6220.83267812269
6220.81599914079
6220.80823765118
6220.80432262863
6220.8025917379
6220.80143635073
6220.80047742858
6220.79985781095
6220.7993645798
6220.79895638882
6220.79862912331
6220.79842648885
6220.79822406967
6220.79806475693
6220.79801209457
6220.79801011501
6220.79807072872
6220.79820468007
6220.79843632977
6220.79887401033
6220.79946723417
6220.80045320436
6220.80228185986
6220.80603040691
6220.81408580097
6220.83139222842
6220.86911583951
6220.94718964364
6221.10433280213
6221.40948497955
6221.98075037986
6223.01362715771
6224.82948772908
6227.9387132878
6233.1084720367
6241.15511858143
6251.49550205443
6254.87120045607
5441.09814894113
5418.28112031713
5388.27761757139
5365.59357609468
5350.72003001989
5341.52613469831
5336.0164457779
5332.8025677089
5330.98626095987
5329.99712537795
5329.47891826185
5329.21847057981
5329.09285328909
5329.03438879388
5329.0080596227
5328.99642174941
5328.99147861104
5328.98921999923
5328.98802629176
5328.98737357301
5328.98693782964
5328.98660125872
5328.98633687252
5328.98615706685
5328.98599820699
5328.98587162679
5328.98581082582
5328.98578831747
5328.98580786282
5328.985897721
5328.98611791315
5328.98662875729
5328.98771010197
5328.99010382526
5328.9955307105
5329.00798641143
5329.03611812168
5329.09781650243
5329.22896709309
5329.49682679545
5330.02364115833
5331.02062505185
5332.8380401249
5336.03933275631
5341.51870665476
5350.67518464367
5365.56055419668
5388.39605977205
5418.62610413981
5440.68666729663
4597.81141966325
4556.06198745469
4512.39413770687
4480.58574368986
4459.95771528922
4447.27070194587
4439.68729123142
4435.26760848702
4432.7681436543
4431.40396098211
4430.68756735735
4430.32634867733
4430.15153747298
4430.07017122347
4430.0336778576
4430.01782712727
4430.01118816208
4430.00838701135
4430.00712813652
4430.00652607635
4430.00617767614
4430.00592681223
4430.00573256783
4430.00559619161
4430.00548395976
4430.00539316909
4430.00533973872
4430.00530843605
4430.00529910993
4430.00534986887
4430.00553836672
4430.00605621043
4430.00735754194
4430.01046000269
4430.01776009481
4430.03482767634
4430.07368811666
4430.15918361001
4430.34060439633
4430.7108219098
4431.43771120803
4432.81107314968
4435.31191618011
4439.71692568642
4447.26604509181
4459.92042706658
4480.6029889507
4512.69524760564
4556.83896212388
4597.90493658103
3824.49031062562
3772.05839278426
3724.81678761471
3691.77110225737
3670.90926404046
3658.37640440449
3651.04340237099
3646.84876474856
3644.51381221703
3643.25615150245
3642.60313220903
3642.27702785063
3642.12053657864
3642.04830492043
3642.01619973653
3642.00242862187
3641.99673961556
3641.99442124676
3641.99345019406
3641.99302126852
3641.99279285299
3641.99263212057
3641.99250504837
3641.992414157
3641.99234298523
3641.99228408535
3641.99224360784
3641.9922119456
3641.992189423
3641.99219570381
3641.99229900043
3641.99267083666
3641.99371742627
3641.99630323549
3642.00249202608
3642.0171844277
3642.0510588551
3642.12640940527
3642.28792491984
3642.62110182382
3643.28276816886
3644.54865914066
3646.88671616958
3651.07313006487
3658.38576817823
3670.91338280759
3691.88388561729
3725.32590119234
3773.28517124525
3825.60001530301
3184.71337952864
3131.55357443396
3088.38011378272
3059.34568307814
3041.53656698914
3031.10652386776
3025.14162638955
3021.79533343001
3019.96193247464
3018.98681550249
3018.48558042455
3018.23727174773
3018.11888270157
3018.0645514604
3018.04054357451
3018.03032717194
3018.02615197104
3018.02449300312
3018.02383492177
3018.02356711557
3018.02343796181
3018.02334892144
3018.02327510164
3018.02322158822
3018.0231818318
3018.02314779226
3018.02312062023
3018.02309398671
3018.0230679884
3018.02305481543
3018.02309080715
3018.02330845046
3018.02403713341
3018.02588928084
3018.0303678112
3018.04112432331
3018.06616146465
3018.12232603035
3018.24371007456
3018.49635972974
3019.00314093419
3019.98396054743
3021.82050398894
3025.16388279481
3031.1217824249
3041.56960893034
3059.51991515784
3089.00492761916
3133.05963899718
3186.74448606775
2701.10458659245
2654.76521026925
2620.00291706674
2597.47538065735
2584.05009039843
2576.38641328551
2572.10253656764
2569.7448433792
2568.47247787749
2567.80349663788
2567.46256681103
2567.2947357172
2567.21508756105
2567.17867048718
2567.16263732187
2567.15585113892
2567.15310288158
2567.15203475514
2567.15163191512
2567.15148295691
2567.15142156999
2567.15138118319
2567.15134408817
2567.151316678
2567.15129790989
2567.1512807639
2567.15126431706
2567.15124455732
2567.15122125712
2567.15120347631
2567.15120307187
2567.15130706785
2567.15175952275
2567.1529514183
2567.15585522427
2567.16289790829
2567.17941112643
2567.21668885956
2567.29776639019
2567.46772622378
2567.81149021493
2568.48356944556
2569.7579702084
2572.11510440875
2576.39919115722
2584.09018406851
2597.6577246507
2620.62080881758
2656.29702796019
2703.60627229934
2363.94830122415
2328.06732885126
2302.82921001005
2287.02887515472
2277.87332661925
2272.77670068566
2269.99080955864
2268.48576384052
2267.68509138791
2267.268486308
2267.05771611092
2266.95446370055
2266.90561645451
2266.88333017466
2266.87353895687
2266.869410283
2266.86775159972
2266.86712063734
2266.86689469148
2266.866820489
2266.86679782884
2266.86678553341
2266.86677074268
2266.86675916254
2266.86675271559
2266.86674562757
2266.8667365934
2266.8667233201
2266.86670534327
2266.86668789901
2266.86667652757
2266.86671555238
2266.86696760427
2266.86767118872
2266.86939805793
2266.87362297031
2266.88358481321
2266.906175433
2266.95553877666
2267.05958269826
2267.27145156149
2267.68929702114
2268.4907466103
2269.99555256855
2272.78348137167
2277.90551166406
2287.18051855004
2303.34876850112
2329.41014642866
2366.42029462267
2145.52160431292
2120.34297504297
2103.56756210597
2093.39704518723
2087.66056834554
2084.54406057178
2082.87720933402
2081.99277220313
2081.52862339373
2081.28941035448
2081.16913631921
2081.11043344921
2081.08271557498
2081.0700814841
2081.06453628842
2081.06220426894
2081.06127423735
2081.06092791124
2081.06081113844
2081.06077921169
2081.06077347098
2081.06077352096
2081.06077083157
2081.06076735997
2081.06076737097
2081.0607656147
2081.06076119629
2081.06075302244
2081.06074060562
2081.06072658285
2081.06071460493
2081.06072339103
2081.06085132769
2081.06123613889
2081.06219170897
2081.0645481681
2081.07012735552
2081.08281754027
2081.11063560405
2081.16950124306
2081.29001481718
2081.5294672753
2081.99354401267
2082.87736124814
2084.54547078705
2087.68013299211
2093.50349283319
2103.95098757319
2121.38457721286
2147.61538822674
2013.18933458281
1996.95471960039
1986.63225521066
1980.55796667029
1977.21895276578
1975.44697991684
1974.51905024189
1974.03522127856
1973.78460420835
1973.65657547105
1973.59254660741
1973.56138092595
1973.54667949364
1973.53997860868
1973.53703799332
1973.53580372155
1973.53531500593
1973.53513700957
1973.53508222527
1973.53507235265
1973.53507373685
1973.53507656924
1973.53507748333
1973.53507765607
1973.53507901687
1973.5350789657
1973.53507693437
1973.53507236642
1973.53506451629
1973.53505468408
1973.53504479408
1973.53504341368
1973.53510355756
1973.53529958089
1973.53579657783
1973.53703093571
1973.53996172982
1973.5466391618
1973.56130383996
1973.59241724324
1973.65637390785
1973.78425231491
1974.03443252279
1974.51734066894
1975.44529531322
1977.22785288585
1980.62287745013
1986.88580310101
1997.68310168282
2014.76259289468
1937.80348528552
1928.08627077789
1922.15506074281
1918.76035298103
1916.93939864113
1915.99455151334
1915.50979042414
1915.26130608236
1915.13421072075
1915.06981831485
1915.03776402081
1915.02219221594
1915.014847999
1915.01149818596
1915.01002748526
1915.00941110776
1915.00916885722
1915.00908289769
1915.00905986677
1915.00905842279
1915.00906080975
1915.009063756
1915.00906557698
1915.0090668931
1915.00906824659
1915.00906860041
1915.00906779656
1915.00906525233
1915.00906063266
1915.00905443101
1915.00904760825
1915.00904430722
1915.00907037528
1915.00916422392
1915.00940896711
1915.01002078516
1915.01147602027
1915.01479322527
1915.02208296773
1915.03757082156
1915.0694991383
1915.13367137839
1915.26029039758
1915.50783246238
1915.99185480514
1916.94174737209
1918.79518756524
1922.30749668361
1928.55188105939
1938.87459307256
1897.22739255329
1891.78467986155
1888.5799217073
1886.79245186823
1885.85562596997
1885.37990419132
1885.14062936024
1885.02000943626
1884.95907087754
1884.92843844302
1884.91325208525
1884.90588436935
1884.90240788825
1884.90082020419
1884.90012252036
1884.89983048644
1884.89971659026
1884.89967766556
1884.89966881443
1884.89966947302
1884.89967161023
1884.89967382154
1884.89967539337
1884.89967662441
1884.89967760335
1884.89967801139
1884.89967770844
1884.89967632757
1884.89967377589
1884.89967018471
1884.89966603628
1884.8996633682
1884.89967380542
1884.89971634842
1884.8998311073
1884.90011976059
1884.90080695089
1884.90237255868
1884.90581143177
1884.91311948252
1884.9282115305
1884.95867227059
1885.01923796087
1885.13908807037
1885.37741748129
1885.85497417128
1886.80891267298
1888.66413419265
1892.05970170017
1897.89777884053
1876.50377079249
1873.63236320798
1871.99453279608
1871.10271010296
1870.64545310453
1870.41800182222
1870.30578146761
1870.25012996864
1870.22235328294
1870.20849599061
1870.20165128066
1870.19833322664
1870.19676605513
1870.19604911291
1870.1957336776
1870.19560179766
1870.19555077281
1870.19553407431
1870.19553101022
1870.19553193698
1870.19553341859
1870.19553482856
1870.19553588637
1870.19553672967
1870.19553733837
1870.19553764003
1870.19553752543
1870.19553680617
1870.19553547473
1870.19553353871
1870.19553124
1870.19552958021
1870.19553344955
1870.19555182808
1870.19560330497
1870.19573357164
1870.19604375554
1870.1967494286
1870.19829713018
1870.2015834888
1870.20837498937
1870.22212687847
1870.24965905112
1870.30477187628
1870.41617382779
1870.64396087186
1871.10944667402
1872.03762037757
1873.78376366925
1876.89363479498
1866.42197712195
1864.98733487076
1864.19171551184
1863.76805465593
1863.55529597903
1863.45153230445
1863.40128345801
1863.37676273364
1863.36466999943
1863.35868154958
1863.35573348646
1863.35430493741
1863.35362926066
1863.3533195159
1863.35318303734
1863.35312604279
1863.35310417244
1863.35309738096
1863.35309647415
1863.35309713102
1863.35309801605
1863.35309882191
1863.35309944191
1863.35309993739
1863.35310027778
1863.35310045819
1863.35310041283
1863.35310005599
1863.35309939584
1863.3530984146
1863.35309722973
1863.35309631045
1863.35309764171
1863.35310527061
1863.35312744928
1863.35318391863
1863.35331832918
1863.35362344368
1863.35429101074
1863.35570593549
1863.35862910566
1863.36456182741
1863.37651248604
1863.4006976716
1863.45036498742
1863.55393831773
1863.77031077415
1864.21225184749
1865.06556160153
1866.63439469388
1861.73407185554
1861.05209045822
1860.68316430273
1860.49074111089
1860.39598049992
1860.35062724365
1860.32905734742
1860.31869702208
1860.31364818647
1860.31116604402
1860.30994788888
1860.30935763534
1860.30907796561
1860.30894945725
1860.30889274165
1860.30886908494
1860.30886009607
1860.30885747376
1860.30885726106
1860.30885763065
1860.30885810751
1860.30885853084
1860.30885886083
1860.30885912366
1860.30885929875
1860.30885939353
1860.30885937468
1860.30885920571
1860.30885889326
1860.30885842256
1860.30885784871
1860.30885739008
1860.30885781207
1860.30886085979
1860.30887007528
1860.30889367467
1860.30894979771
1860.30907683567
1860.3093538832
1860.30993948945
1860.31114781738
1860.31360364722
1860.31857719844
1860.32874698038
1860.34995442527
1860.39503143896
1860.49123292665
1860.6923182697
1861.09024904559
1861.84322694356
1859.64413419731
1859.33445138681
1859.17055905118
1859.08669932682
1859.04615489111
1859.02709472754
1859.01818641058
1859.01397368304
1859.01194487538
1859.01095459858
1859.01047001421
1859.01023515641
1859.01012364935
1859.01007227907
1859.01004956693
1859.01004010488
1859.01003655225
1859.01003557315
1859.01003554588
1859.01003574341
1859.01003598072
1859.0100361879
1859.01003635058
1859.01003647939
1859.01003656329
1859.01003660869
1859.01003660066
1859.01003652411
1859.01003638252
1859.01003616786
1859.01003590474
1859.01003568877
1859.01003581186
1859.01003699476
1859.01004069858
1859.01005023717
1859.01007289197
1859.01012399868
1859.01023501133
1859.01046882841
1859.0109502507
1859.01192922901
1859.01392100187
1859.01803348004
1859.02673703757
1859.04558190244
1859.08663881404
1859.17438340815
1859.35211113806
1859.69732741165
1858.74832282394
1858.61352215652
1858.54354658045
1858.50836919402
1858.49165258313
1858.48392661256
1858.48037572819
1858.4787219084
1858.47793474679
1858.47755325435
1858.47736708735
1858.47727681775
1858.47723386008
1858.47721401428
1858.47720522271
1858.47720156388
1858.47720020764
1858.47719985312
1858.47719986311
1858.47719995976
1858.47720006987
1858.47720016498
1858.47720023996
1858.47720029892
1858.47720033661
1858.47720035681
1858.47720035341
1858.47720032018
1858.47720025871
1858.47720016543
1858.47720005092
1858.47719995725
1858.47719999095
1858.47720043653
1858.47720188091
1858.47720562051
1858.47721448688
1858.47723441107
1858.47727749128
1858.47736783811
1858.47755330794
1858.47793034444
1858.47870037943
1858.48030476118
1858.48374873325
1858.49133997147
1858.50821177754
1858.54504431061
1858.62130907326
1858.77301922714
1858.37821364656
1858.3217938975
1858.29299892944
1858.27875676002
1858.27209695416
1858.26906812429
1858.26769826658
1858.26706966245
1858.26677392559
1858.26663160715
1858.26656233769
1858.26652872686
1858.26651269108
1858.26650526002
1858.26650196056
1858.26650058796
1858.26650008483
1858.26649995924
1858.26649996964
1858.26650001293
1858.26650006059
1858.2665001015
1858.26650013383
1858.26650015907
1858.26650017493
1858.26650018332
1858.2665001819
1858.26650016811
1858.26650014261
1858.26650010407
1858.2665000568
1858.26650001784
1858.2665000269
1858.26650019255
1858.26650074142
1858.26650216764
1858.26650554095
1858.26651308823
1858.26652932303
1858.2665632019
1858.26663249143
1858.2667731875
1858.26706140742
1858.26766695672
1858.26898454636
1858.27193917218
1858.2786332341
1858.29354733871
1858.32507724154
1858.3891807834
1858.23048192369
1858.20771431156
1858.19626604486
1858.19068730985
1858.18811744687
1858.18696628676
1858.18645357259
1858.18622166048
1858.18611379464
1858.18606224637
1858.1860372184
1858.18602506298
1858.18601924677
1858.18601654195
1858.18601533723
1858.18601483538
1858.1860146523
1858.18601460762
1858.18601461275
1858.1860146302
1858.18601464913
1858.18601466534
1858.18601467817
1858.18601468812
1858.18601469426
1858.18601469746
1858.18601469689
1858.18601469146
1858.18601468149
1858.18601466653
1858.18601464827
1858.18601463325
1858.18601463636
1858.18601469784
1858.18601490242
1858.18601543348
1858.18601668467
1858.18601946957
1858.18602542559
1858.18603778544
1858.18606295166
1858.18611395357
1858.18621866388
1858.18644033865
1858.18692890353
1858.18804271327
1858.19061318151
1858.1964524818
1858.20904235258
1858.23515628835
1858.17339198177
1858.16451210878
1858.16010488496
1858.15798621707
1858.15702370394
1858.15659864065
1858.15641205666
1858.15632882268
1858.15629053918
1858.15627236764
1858.1562635644
1858.15625928311
1858.15625722723
1858.15625626662
1858.15625583643
1858.15625565609
1858.15625558949
1858.15625557243
1858.15625557356
1858.15625557934
1858.15625558577
1858.15625559129
1858.15625559568
1858.15625559906
1858.1562556011
1858.15625560213
1858.15625560188
1858.15625559994
1858.15625559641
1858.15625559119
1858.15625558492
1858.15625557993
1858.15625558199
1858.15625560558
1858.15625568128
1858.1562558756
1858.15625632988
1858.1562573339
1858.15625946654
1858.15626386405
1858.1562727713
1858.1562907727
1858.15632778101
1858.15640666236
1858.15658262773
1858.15699016195
1858.15794746304
1858.16016283189
1858.16502882586
1858.17530987359
1858.15199170775
1858.14863707046
1858.14699104719
1858.14620947769
1858.14585892592
1858.14570615712
1858.14564001123
1858.14561089151
1858.14559764095
1858.14559139169
1858.14558836919
1858.1455868958
1858.14558618449
1858.14558584942
1858.14558569753
1858.14558563248
1858.14558560728
1858.14558559941
1858.1455855982
1858.14558559907
1858.14558560031
1858.14558560142
1858.14558560231
1858.14558560299
1858.14558560337
1858.14558560355
1858.14558560342
1858.14558560287
1858.14558560193
1858.14558560059
1858.14558559907
1858.14558559824
1858.14558560031
1858.14558561027
1858.1455856389
1858.14558570985
1858.14558587266
1858.14558622814
1858.1455869761
1858.1455885062
1858.14559158581
1858.14559778608
1858.14561053777
1858.14563787744
1858.14569955559
1858.1458445593
1858.14619098401
1858.14700694554
1858.14883093423
1858.15275124251
1858.14419674127
1858.14296679771
1858.14236935491
1858.14208884314
1858.14196449589
1858.14191096795
1858.14188808544
1858.14187813565
1858.14187365299
1858.14187155037
1858.14187053349
1858.14187003524
1858.14186979216
1858.1418696756
1858.14186962107
1858.14186959627
1858.14186958532
1858.14186958055
1858.14186957834
1858.14186957712
1858.1418695763
1858.14186957565
1858.14186957515
1858.14186957478
1858.14186957451
1858.14186957434
1858.14186957427
1858.14186957427
1858.14186957433
1858.14186957447
1858.1418695748
1858.14186957562
1858.14186957774
1858.14186958287
1858.14186959478
1858.14186962165
1858.14186968048
1858.14186980558
1858.14187006437
1858.14187058746
1858.14187163103
1858.14187372045
1858.14187801319
1858.14188726012
1858.14190833616
1858.14195859059
1858.14208060103
1858.14237284396
1858.14303708451
1858.14448775608
1858.14143334904
1858.14099492979
1858.14078388365
1858.14068580426
1858.14064279019
1858.14062448049
1858.14061674354
1858.14061341623
1858.14061192945
1858.14061123397
1858.14061089607
1858.14061072826
1858.1406106443
1858.14061060222
1858.14061058095
1858.14061056986
1858.14061056371
1858.14061055992
1858.14061055729
1858.14061055528
1858.14061055366
1858.14061055235
1858.14061055131
1858.14061055054
1858.14061055002
1858.14061054973
1858.14061054969
1858.14061054989
1858.14061055033
1858.14061055103
1858.14061055204
1858.14061055347
1858.14061055564
1858.14061055911
1858.1406105652
1858.14061057669
1858.14061059929
1858.14061064444
1858.14061073442
1858.14061091207
1858.14061126101
1858.14061195291
1858.14061336896
1858.14061642744
1858.14062346012
1858.14064044912
1858.14068232724
1858.14078424532
1858.14101960174
1858.14154145218
1858.14047847558
1858.14032630429
1858.1402536724
1858.14022024071
1858.14020572035
1858.14019960018
1858.14019703903
1858.14019594656
1858.14019546011
1858.14019523135
1858.14019511813
1858.1401950598
1858.1401950287
1858.14019501144
1858.14019500127
1858.14019499476
1858.14019499019
1858.14019498671
1858.14019498392
1858.14019498162
1858.14019497971
1858.14019497814
1858.14019497691
1858.14019497599
1858.14019497537
1858.14019497505
1858.14019497502
1858.1401949753
1858.14019497588
1858.14019497678
1858.14019497803
1858.1401949797
1858.14019498188
1858.1401949848
1858.14019498891
1858.14019499514
1858.1401950054
1858.14019502341
1858.14019505641
1858.14019511814
1858.14019523534
1858.14019546283
1858.14019592329
1858.14019691587
1858.14019921171
1858.14020482021
1858.14021883942
1858.14025347605
1858.14033470274
1858.14051748143
1858.14015643185
1858.14010493684
1858.14008058316
1858.14006948237
1858.14006470263
1858.1400627032
1858.14006187112
1858.14006151642
1858.14006135688
1858.14006127965
1858.14006123922
1858.1400612164
1858.14006120251
1858.14006119335
1858.14006118681
1858.1400611818
1858.14006117775
1858.14006117438
1858.14006117153
1858.14006116912
1858.14006116711
1858.14006116546
1858.14006116416
1858.14006116319
1858.14006116254
1858.1400611622
1858.14006116219
1858.14006116249
1858.14006116312
1858.1400611641
1858.14006116544
1858.14006116718
1858.14006116937
1858.14006117211
1858.14006117555
1858.14006118002
1858.14006118615
1858.14006119515
1858.1400612093
1858.14006123295
1858.14006127444
1858.1400613509
1858.14006150086
1858.14006181938
1858.14006255484
1858.14006436391
1858.14006893868
1858.14008040268
1858.14010771309
1858.14017012489
1858.14005028828
1858.14003328675
1858.14002535341
1858.14002178193
1858.14002025563
1858.14001961848
1858.14001935175
1858.14001923559
1858.14001918072
1858.14001915171
1858.14001913439
1858.14001912286
1858.14001911447
1858.14001910792
1858.14001910256
1858.14001909804
1858.14001909416
1858.14001909083
1858.14001908797
1858.14001908553
1858.14001908349
1858.14001908182
1858.1400190805
1858.14001907951
1858.14001907886
1858.14001907852
1858.14001907851
1858.14001907882
1858.14001907947
1858.14001908048
1858.14001908184
1858.14001908361
1858.1400190858
1858.14001908847
1858.14001909169
1858.14001909558
1858.14001910035
1858.1400191064
1858.14001911445
1858.14001912582
1858.14001914307
1858.14001917141
1858.1400192226
1858.14001932593
1858.14001955882
1858.14002012847
1858.14002157702
1858.14002525448
1858.14003417885
1858.14005497126
1858.14001606033
1858.14001058866
1858.14000810848
1858.14000701795
1858.14000655454
1858.14000635822
1858.14000627254
1858.14000623196
1858.14000620993
1858.14000619595
1858.14000618583
1858.14000617784
1858.14000617117
1858.14000616545
1858.14000616048
1858.14000615614
1858.14000615234
1858.14000614903
1858.14000614618
1858.14000614374
1858.1400061417
1858.14000614003
1858.14000613871
1858.14000613773
1858.14000613707
1858.14000613674
1858.14000613673
1858.14000613705
1858.14000613771
1858.14000613872
1858.14000614009
1858.14000614186
1858.14000614404
1858.14000614668
1858.14000614981
1858.1400061535
1858.14000615783
1858.14000616293
1858.14000616903
1858.14000617653
1858.14000618618
1858.14000619949
1858.14000621992
1858.140006256
1858.14000633051
1858.14000650474
1858.14000694176
1858.14000806339
1858.14001086741
1858.14001762171
1858.14000525049
1858.14000354398
1858.14000283413
1858.14000254326
1858.14000241969
1858.14000236303
1858.1400023341
1858.14000231693
1858.14000230497
1858.14000229556
1858.14000228764
1858.14000228072
1858.1400022746
1858.14000226916
1858.14000226433
1858.14000226006
1858.14000225631
1858.14000225303
1858.1400022502
1858.14000224778
1858.14000224576
1858.1400022441
1858.14000224279
1858.14000224182
1858.14000224117
1858.14000224084
1858.14000224084
1858.14000224116
1858.14000224182
1858.14000224282
1858.14000224419
1858.14000224595
1858.14000224812
1858.14000225073
1858.14000225383
1858.14000225744
1858.14000226161
1858.14000226639
1858.14000227188
1858.14000227818
1858.1400022855
1858.14000229426
1858.14000230533
1858.14000232091
1858.14000234662
1858.14000239746
1858.14000251437
1858.14000281572
1858.14000362859
1858.14000575759
1858.14000190436
1858.14000140059
1858.14000125305
1858.14000121433
1858.14000119701
1858.14000118354
1858.14000117192
1858.14000116177
1858.14000115276
1858.14000114469
1858.14000113739
1858.1400011308
1858.14000112486
1858.14000111952
1858.14000111476
1858.14000111054
1858.14000110683
1858.14000110359
1858.14000110079
1858.14000109841
1858.14000109641
1858.14000109477
1858.14000109348
1858.14000109252
1858.14000109188
1858.14000109156
1858.14000109156
1858.14000109188
1858.14000109253
1858.14000109353
1858.14000109489
1858.14000109663
1858.14000109878
1858.14000110137
1858.14000110443
1858.140001108
1858.1400011121
1858.14000111678
1858.14000112207
1858.14000112801
1858.14000113466
1858.1400011421
1858.14000115046
1858.14000116001
1858.14000117114
1858.14000118446
1858.14000120238
1858.14000124626
1858.14000142546
1858.14000206392
1858.14000088917
1858.1400007617
1858.14000078889
1858.14000082777
1858.1400008427
1858.14000084208
1858.14000083545
1858.14000082722
1858.14000081897
1858.14000081122
1858.14000080408
1858.14000079758
1858.1400007917
1858.14000078642
1858.14000078171
1858.14000077755
1858.14000077388
1858.14000077068
1858.14000076793
1858.14000076557
1858.14000076361
1858.140000762
1858.14000076073
1858.14000075979
1858.14000075916
1858.14000075885
1858.14000075885
1858.14000075917
1858.14000075982
1858.1400007608
1858.14000076215
1858.14000076387
1858.14000076599
1858.14000076856
1858.14000077158
1858.14000077511
1858.14000077917
1858.1400007838
1858.14000078902
1858.14000079487
1858.14000080135
1858.14000080848
1858.14000081617
1858.14000082412
1858.14000083119
1858.14000083357
1858.14000082182
1858.14000078685
1858.14000076876
1858.14000093683
1858.14000058821
1858.14000057621
1858.14000065633
1858.14000071818
1858.14000074231
1858.14000074511
1858.14000073964
1858.14000073175
1858.14000072358
1858.14000071583
1858.1400007087
1858.14000070222
1858.14000069637
1858.14000069114
1858.14000068649
1858.14000068237
1858.14000067876
1858.14000067562
1858.14000067291
1858.14000067061
1858.14000066868
1858.1400006671
1858.14000066586
1858.14000066494
1858.14000066433
1858.14000066403
1858.14000066403
1858.14000066435
1858.14000066499
1858.14000066596
1858.14000066728
1858.14000066898
1858.14000067107
1858.1400006736
1858.14000067658
1858.14000068007
1858.14000068409
1858.14000068869
1858.14000069388
1858.14000069972
1858.1400007062
1858.14000071333
1858.14000072098
1858.14000072869
1858.14000073489
1858.14000073449
1858.14000071443
1858.14000065622
1858.1400005782
1858.14000060071
1858.1400005024
1858.14000052522
1858.14000062068
1858.14000068863
1858.14000071481
1858.1400007181
1858.14000071259
1858.14000070453
1858.14000069621
1858.14000068836
1858.14000068118
1858.1400006747
1858.14000066888
1858.1400006637
1858.14000065911
1858.14000065506
1858.14000065152
1858.14000064844
1858.14000064578
1858.14000064353
1858.14000064164
1858.14000064011
1858.1400006389
1858.140000638
1858.14000063741
1858.14000063712
1858.14000063713
1858.14000063744
1858.14000063807
1858.14000063902
1858.14000064032
1858.14000064198
1858.14000064404
1858.14000064652
1858.14000064946
1858.1400006529
1858.14000065688
1858.14000066144
1858.14000066662
1858.14000067247
1858.140000679
1858.14000068623
1858.14000069405
1858.14000070197
1858.14000070831
1858.14000070762
1858.1400006858
1858.14000062143
1858.14000052594
1858.14000050418
1858.14000048065
1858.14000051383
1858.14000061312
1858.14000068195
1858.14000070791
1858.14000071071
1858.14000070473
1858.14000069632
1858.14000068776
1858.14000067978
1858.14000067254
1858.14000066605
1858.14000066027
1858.14000065514
1858.14000065062
1858.14000064665
1858.14000064318
1858.14000064017
1858.14000063759
1858.14000063539
1858.14000063356
1858.14000063206
1858.14000063089
1858.14000063002
1858.14000062945
1858.14000062917
1858.14000062919
1858.14000062949
1858.14000063011
1858.14000063104
1858.14000063231
1858.14000063394
1858.14000063595
1858.14000063838
1858.14000064127
1858.14000064465
1858.14000064858
1858.1400006531
1858.14000065826
1858.14000066412
1858.14000067072
1858.1400006781
1858.14000068616
1858.14000069445
1858.14000070128
1858.14000070115
1858.14000067963
1858.14000061437
1858.14000051436
1858.14000047934
1858.14000047811
1858.14000051434
1858.14000061389
1858.14000068183
1858.14000070674
1858.14000070866
1858.14000070204
1858.14000069318
1858.14000068434
1858.14000067621
1858.14000066891
1858.14000066242
1858.14000065669
1858.14000065163
1858.14000064719
1858.1400006433
1858.14000063992
1858.14000063699
1858.14000063448
1858.14000063236
1858.14000063058
1858.14000062914
1858.140000628
1858.14000062717
1858.14000062662
1858.14000062635
1858.14000062637
1858.14000062668
1858.14000062728
1858.14000062818
1858.14000062942
1858.140000631
1858.14000063296
1858.14000063534
1858.14000063816
1858.14000064148
1858.14000064535
1858.14000064981
1858.14000065495
1858.14000066082
1858.1400006675
1858.14000067503
1858.14000068338
1858.14000069211
1858.1400006996
1858.14000070037
1858.14000067992
1858.1400006155
1858.14000051501
1858.14000047604
1858.14000048178
1858.14000051889
1858.14000061742
1858.14000068373
1858.14000070717
1858.14000070798
1858.14000070059
1858.14000069123
1858.14000068209
1858.1400006738
1858.14000066645
1858.14000065998
1858.1400006543
1858.14000064933
1858.14000064498
1858.14000064119
1858.14000063791
1858.14000063507
1858.14000063265
1858.1400006306
1858.14000062889
1858.1400006275
1858.14000062641
1858.14000062561
1858.14000062509
1858.14000062483
1858.14000062486
1858.14000062515
1858.14000062574
1858.14000062662
1858.14000062781
1858.14000062935
1858.14000063125
1858.14000063356
1858.14000063631
1858.14000063955
1858.14000064335
1858.14000064775
1858.14000065285
1858.14000065872
1858.14000066546
1858.14000067316
1858.1400006818
1858.14000069105
1858.1400006993
1858.14000070117
1858.14000068219
1858.14000061937
1858.14000051978
1858.14000047966
1858.14000048811
1858.14000052538
1858.14000062223
1858.14000068639
1858.14000070801
1858.14000070753
1858.14000069927
1858.14000068938
1858.14000067993
1858.1400006715
1858.14000066411
1858.14000065767
1858.14000065207
1858.1400006472
1858.14000064296
1858.14000063929
1858.14000063612
1858.14000063339
1858.14000063106
1858.14000062909
1858.14000062745
1858.14000062612
1858.14000062508
1858.14000062432
1858.14000062382
1858.14000062358
1858.14000062361
1858.1400006239
1858.14000062446
1858.14000062531
1858.14000062647
1858.14000062795
1858.14000062979
1858.14000063202
1858.14000063469
1858.14000063784