/*--------------------------------*- C++ -*----------------------------------*\
  =========                 |
  \\      /  F ield         | OpenFOAM: The Open Source CFD Toolbox
   \\    /   O peration     | Website:  https://openfoam.org
    \\  /    A nd           | Version:  10
     \\/     M anipulation  |
\*---------------------------------------------------------------------------*/
FoamFile
{
    format      ascii;
    class       volScalarField;
    location    "7.6";
    object      k;
}
// * * * * * * * * * * * * * * * * * * * * * * * * * * * * * * * * * * * * * //

dimensions      [0 2 -2 0 0 0 0];

internalField   nonuniform List<scalar> 
2500
(
7.56234167317352e-10
1.48730316329683e-08
6.36496741913194e-08
1.10665401599185e-07
1.5159613790319e-07
1.84959537636554e-07
2.10496345544305e-07
2.28875862685391e-07
2.41333220833219e-07
2.49298140627119e-07
2.54111039554228e-07
2.56864962932231e-07
2.58360125293538e-07
2.59131896576812e-07
2.59511389767903e-07
2.59689479236824e-07
2.59769371853169e-07
2.59803673665839e-07
2.5981777302087e-07
2.59823311399642e-07
2.59825376681563e-07
2.59826093956114e-07
2.59826313447185e-07
2.59826361082767e-07
2.59826354037558e-07
2.59826327619924e-07
2.59826277946674e-07
2.59826151107449e-07
2.59825793139126e-07
2.59824800336607e-07
2.59822157962027e-07
2.59815412412874e-07
2.59798865406805e-07
2.59759834285012e-07
2.59671338243885e-07
2.59478681967829e-07
2.59076569967892e-07
2.58273311990319e-07
2.5674053695551e-07
2.53952200577683e-07
2.49126545987116e-07
2.41197836908521e-07
2.28855857425437e-07
2.10690723692055e-07
1.85457985752369e-07
1.52431318286831e-07
1.11752993782016e-07
6.47151908153407e-08
1.53065813748063e-08
7.91285544618404e-10
1.8666375062051e-08
4.27909468224159e-07
1.86916564466205e-06
3.2518505215706e-06
4.45712752829449e-06
5.44180218287774e-06
6.19768569217989e-06
6.74361443976016e-06
7.11511605941302e-06
7.35369886753086e-06
7.49855888626794e-06
7.5818715634114e-06
7.62734656517894e-06
7.65095041264592e-06
7.66262316259791e-06
7.66813290663055e-06
7.67061922084639e-06
7.67169314832708e-06
7.67213731367565e-06
7.67231294470912e-06
7.67237894507072e-06
7.6724021145371e-06
7.67240934852149e-06
7.67241102639053e-06
7.67241090118961e-06
7.6724101018597e-06
7.67240851415876e-06
7.67240441758894e-06
7.67239291532295e-06
7.67236123259212e-06
7.67227743587176e-06
7.67206474943634e-06
7.67154589472104e-06
7.67032861552635e-06
7.6675833875567e-06
7.66163864227627e-06
7.64929603960128e-06
7.62476865235194e-06
7.57820415348118e-06
7.4939165400065e-06
7.34873886732658e-06
7.11128558670929e-06
6.74321898320861e-06
6.20357344567087e-06
5.45651433013806e-06
4.48152966323011e-06
3.28342800012704e-06
1.89995566631348e-06
4.40131798538066e-07
1.94989710224376e-08
6.59993816227014e-08
1.91579080850013e-06
9.47274648626161e-06
1.64504383705428e-05
2.24957242391706e-05
2.74187834550398e-05
3.11918006627794e-05
3.39161810985812e-05
3.57719259531485e-05
3.69660694457898e-05
3.76931219127185e-05
3.81126733465036e-05
3.83425495452951e-05
3.84623590697413e-05
3.85218668283374e-05
3.85500834752113e-05
3.85628765636457e-05
3.85684293784937e-05
3.85707377663117e-05
3.85716556677871e-05
3.85720029157019e-05
3.8572125971963e-05
3.85721650693242e-05
3.85721746292714e-05
3.85721744305406e-05
3.85721704725346e-05
3.85721621856062e-05
3.85721406275598e-05
3.85720803464258e-05
3.85719151460852e-05
3.85714801395686e-05
3.85703803506213e-05
3.85677071734668e-05
3.85614578464162e-05
3.85474134737584e-05
3.85171061097112e-05
3.84543974469465e-05
3.83302021435199e-05
3.80951895964584e-05
3.7671092486443e-05
3.69426443234966e-05
3.57539461495629e-05
3.39144704909016e-05
3.12196830467776e-05
2.7488132970881e-05
2.26105715890812e-05
1.65988848067072e-05
9.61708454611892e-06
1.96565191253074e-06
6.84990490513163e-08
1.16455273023822e-07
3.40398782226781e-06
1.68893826353664e-05
2.92273492531028e-05
3.98522657274189e-05
4.84651628927348e-05
5.5043970633918e-05
5.97837037632784e-05
6.30080783283691e-05
6.50818425588347e-05
6.63445516002209e-05
6.70735932990459e-05
6.7473387400792e-05
6.76819899169337e-05
6.77857368562585e-05
6.78350037111005e-05
6.78573775907657e-05
6.78671065683201e-05
6.78711592278356e-05
6.78727744903166e-05
6.78733873592114e-05
6.78736054888919e-05
6.78736753502308e-05
6.78736928232917e-05
6.78736928526876e-05
6.7873686248985e-05
6.78736720173355e-05
6.78736348445652e-05
6.78735308472534e-05
6.78732457058748e-05
6.78724943577491e-05
6.78705933196994e-05
6.78659690170594e-05
6.78551505099622e-05
6.78308218191649e-05
6.77782916888584e-05
6.7669550618701e-05
6.74541016765406e-05
6.70462678227442e-05
6.63100392660236e-05
6.5044900653341e-05
6.29790906318577e-05
5.97791234905615e-05
5.50840649432437e-05
4.85679820979306e-05
4.00237900623107e-05
2.94488970713506e-05
1.71027201021265e-05
3.47607291089308e-06
1.20003980685083e-07
1.65896548842195e-07
4.85177129285825e-06
2.40189250921925e-05
4.14300611641152e-05
5.63474590133833e-05
6.83927660532624e-05
7.75673368260902e-05
8.41647731126211e-05
8.86480589737367e-05
9.15302233726784e-05
9.32852658210008e-05
9.42990063172482e-05
9.48553294673448e-05
9.51458826934642e-05
9.52905527246355e-05
9.53593430564705e-05
9.53906292511452e-05
9.54042560262944e-05
9.54099429504383e-05
9.5412214617037e-05
9.54130790395097e-05
9.54133880599008e-05
9.54134878566712e-05
9.54135133554994e-05
9.54135139723998e-05
9.54135052353364e-05
9.54134857007798e-05
9.54134344390016e-05
9.54132909847105e-05
9.54128975376195e-05
9.54118601362633e-05
9.54092331899369e-05
9.5402837572986e-05
9.53878624903997e-05
9.53541601855487e-05
9.52813397038614e-05
9.51305033848027e-05
9.48314904587492e-05
9.42652026433638e-05
9.32424582064311e-05
9.14840775737842e-05
8.86110113692742e-05
8.4156548264154e-05
7.76122169084249e-05
6.85123143451741e-05
5.65486165604094e-05
4.16899874001184e-05
2.42679529596865e-05
4.93596299203492e-06
1.70083352648146e-07
2.13079805861039e-07
6.23260778399067e-06
3.07671909457608e-05
5.29124846907996e-05
7.18012828034424e-05
8.70017296684356e-05
9.85515243571657e-05
0.000106843891550794
0.000112473996684962
0.000116092230320695
0.000118295718147506
0.000119569042623444
0.000120268305539512
0.000120633841188294
0.000120816041459148
0.000120902784173156
0.000120942290066889
0.000120959523935404
0.000120966729205262
0.000120969613681189
0.000120970714514632
0.000120971109866824
0.000120971238690941
0.000120971272330376
0.000120971273917322
0.000120971263523843
0.000120971239267747
0.000120971175286715
0.000120970996279742
0.000120970505397283
0.00012096921063657
0.000120965929925225
0.000120957936715601
0.000120939206826415
0.000120897024015187
0.000120805820640452
0.000120616798782539
0.000120241900643051
0.000119531582211619
0.000118248174128428
0.00011604065478284
0.000112431733413439
0.000106832102513552
9.85962143315014e-05
8.71258970140115e-05
7.20121474627548e-05
5.31854242962877e-05
3.10286112651353e-05
6.32218259316193e-06
2.17629115726402e-07
2.57294922927538e-07
7.52725188400492e-06
3.7058218661916e-05
6.35609007570946e-05
8.60776137663799e-05
0.000104144500891959
0.000117844117755589
0.00012766707436116
0.000134331662028081
0.000138613751618433
0.00014122191692888
0.000142729756443825
0.000143558361103476
0.000143991880365999
0.000144208186737719
0.000144311287014519
0.000144358304735438
0.000144378846248003
0.000144387449369411
0.000144390900850611
0.000144392221966067
0.000144392698692336
0.000144392855527912
0.000144392897430805
0.000144392900337396
0.000144392888686052
0.000144392860235003
0.000144392784790699
0.000144392573875234
0.000144391995845575
0.000144390471149508
0.000144386606131181
0.00014437718359254
0.000144355090075117
0.000144305300367373
0.000144197587721424
0.000143974235188467
0.000143531048948918
0.000142691015953592
0.000141172687106301
0.000138560103468474
0.000134287000910186
0.000127652619994621
0.000117885855862648
0.00010426527930411
8.62844247827723e-05
6.38291877219688e-05
3.73159895013484e-05
7.61759705650936e-06
2.6201056640051e-07
2.98047014195053e-07
8.72159318952188e-06
4.28353190405074e-05
7.32943627979612e-05
9.90837277037548e-05
0.000119724480799312
0.000135348665852278
0.00014653946309454
0.000154127878462144
0.000159002870800108
0.000161972725943339
0.000163690427941565
0.000164634968632099
0.000165129547185905
0.000165376556846518
0.000165494421364596
0.000165548239320169
0.000165571785290261
0.000165581663234342
0.0001655856344651
0.000165587158980557
0.000165587711755533
0.000165587895410007
0.000165587945658973
0.00016558795025474
0.000165587937639733
0.000165587905468297
0.000165587819720514
0.000165587580309447
0.00016558692485924
0.00016558519633119
0.000165580813471686
0.000165570123348852
0.000165545043736412
0.000165488493307387
0.00016536609204204
0.000165112165536851
0.000164608114010715
0.00016365238725768
0.00016192440819846
0.000158950135957162
0.000154083613069549
0.000146523967595625
0.000135386651855617
0.000119837483186849
9.9278102520556e-05
7.35468444690655e-05
4.30791520288823e-05
8.8096349051045e-06
3.02789412876518e-07
3.35008411174283e-07
9.80610327907234e-06
4.80616882460931e-05
8.20646805283604e-05
0.000110769362811149
0.000133694268918387
0.000151022329346532
0.000163422590474763
0.000171827562784947
0.000177226783736918
0.000180516717053896
0.000182420384008735
0.000183467833498895
0.000184016720049621
0.000184291101569555
0.000184422162848789
0.000184482077033585
0.000184508325534158
0.000184519354819532
0.000184523797893264
0.000184525508440651
0.000184526131627223
0.000184526340683833
0.000184526399295271
0.000184526405916377
0.000184526392581742
0.00018452635712765
0.000184526262154963
0.000184525997446292
0.00018452527373205
0.000184523366042273
0.000184518528386841
0.00018450672462382
0.0001844790193862
0.000184416518534771
0.00018428117672601
0.00018400029168705
0.000183442533388027
0.000182384659542298
0.000180471489128192
0.000177177588809782
0.000171786416822976
0.000163408245217583
0.000151057386466086
0.000133798145775061
0.000110947427636388
8.22955936678978e-05
4.82859395060458e-05
9.88997942391759e-06
3.39683402606215e-07
3.68004489138997e-07
1.0775597862003e-05
5.27200060439081e-05
8.98549790385022e-05
0.00012112417811591
0.000146052243415219
0.000164871853252288
0.000178329968805617
0.000187449085088962
0.000193307028333955
0.000196877328173972
0.000198944118098677
0.00020008199433596
0.000200678699666672
0.000200977238670655
0.000201119977515812
0.000201185302058975
0.000201213957149557
0.000201226015850815
0.000201230883007629
0.000201232762018478
0.000201233449750543
0.000201233682578602
0.000201233749406775
0.000201233758308894
0.000201233744561636
0.0002012337062248
0.000201233603037278
0.000201233316025407
0.000201232532618609
0.000201230468888413
0.000201225235647289
0.000201212463177138
0.000201182472535589
0.000201114787878338
0.000200968162998241
0.000200663754151699
0.000200059101299277
0.00019891199069318
0.000196836970098223
0.000193263634798454
0.000187413637793992
0.000178319329532134
0.000164906026072363
0.000146148018779585
0.000121285625342314
9.00628258497087e-05
5.29227010993995e-05
1.0854416008451e-05
3.72555471115139e-07
3.97001566543803e-07
1.16289329301277e-05
5.68110216921513e-05
9.66768471120402e-05
0.000130173632682201
0.000156837494869168
0.000176947864908749
0.000191320988104765
0.000201057926575046
0.000207313002778763
0.000211126302960279
0.000213334687175488
0.000214551197613944
0.000215189572435996
0.000215509211940303
0.000215662177481096
0.000215732254180073
0.000215763030242604
0.000215775999868667
0.000215781244265133
0.000215783274264141
0.0002157840205505
0.000215784275377267
0.00021578435015281
0.000215784361521738
0.000215784347612763
0.000215784306765074
0.000215784196313651
0.000215783889796041
0.000215783054664156
0.000215780856358003
0.000215775282537815
0.000215761676221251
0.000215729717365861
0.000215657565025511
0.000215501208210908
0.000215176495151187
0.000214531342180003
0.000213307127636411
0.000211092214780176
0.000207277292886519
0.000201030524956858
0.00019131675308136
0.000176983992774442
0.000156927877015459
0.000130320767013901
9.68633000001196e-05
5.69929511648795e-05
1.17025565824037e-05
4.01402463919518e-07
4.22090251615508e-07
1.23685479346798e-05
6.03513088162014e-05
0.000102566356422329
0.000137973609952349
0.000166123447808649
0.00018733782624813
0.000202493443868707
0.000212758947928965
0.000219354080362134
0.000223375717584396
0.000225705689756287
0.000226989849771421
0.000227664149388733
0.000228002023740216
0.000228163850522873
0.000228238057094897
0.000228270682650309
0.000228284449834021
0.000228290026257344
0.00022829219014964
0.000228292988984483
0.000228293263951345
0.000228293346298884
0.00022829336021867
0.00022829334634631
0.000228293303333342
0.000228293186515021
0.000228292863093574
0.000228291983580651
0.000228289670415077
0.00022828380651965
0.000228269490290058
0.000228235855135309
0.000228159895224167
0.000227995238484054
0.000227653197594747
0.000226973462720564
0.00022568338410602
0.000223348936717094
0.000219327543060027
0.000212741620619347
0.000202498237607616
0.000187379130101662
0.000166212167090728
0.000138110442574188
0.000102735233547025
6.05151915150322e-05
1.24373955864676e-05
4.2633863742012e-07
4.43464203390402e-07
1.29998706417659e-05
6.33704339618821e-05
0.000107579316941054
0.000144604211190625
0.000174010620572774
0.000196158102262742
0.000211975161478319
0.000222687737847908
0.000229570791935867
0.000233769066530656
0.000236202297509248
0.000237544019643
0.000238248953593055
0.0002386024150206
0.000238771836639009
0.000238849593434056
0.000238883814314295
0.000238898272251928
0.000238904137748655
0.000238906419085071
0.000238907264555756
0.000238907557760073
0.000238907647216711
0.000238907663668922
0.000238907649985058
0.000238907605130434
0.000238907482789889
0.000238907144868866
0.000238906227678666
0.000238903817557321
0.000238897709379838
0.000238882795646728
0.000238847749244145
0.000238768581908136
0.000238596928840282
0.000238240272726856
0.000237531354862415
0.000236185673621581
0.000233750288352795
0.000229554515860447
0.000222682123250676
0.000211991345025497
0.000196207816700333
0.000174101837335648
0.000144735650660509
0.000107735669081039
6.35201657069362e-05
1.30647288648468e-05
4.47574624318374e-07
4.61395979950048e-07
1.35306340128524e-05
6.59078041918753e-05
0.000111786157397639
0.000150163175026246
0.000180619019698742
0.000203545666019411
0.000219915253268195
0.000231001588009144
0.00023812562884642
0.000242471964243722
0.000244991899533932
0.000246382051576266
0.000247112817070289
0.000247479454186926
0.000247655313096516
0.000247736088085797
0.000247771669866977
0.000247786719460695
0.000247792833855884
0.000247795217063134
0.000247796103450177
0.000247796412963791
0.000247796508967288
0.000247796527879666
0.000247796514515873
0.00024779646812199
0.000247796341050237
0.000247795990832293
0.000247795042018034
0.000247792551000534
0.000247786239524062
0.000247770828871001
0.000247734608560044
0.000247652771760351
0.000247475292152392
0.00024710645735371
0.00024637320986215
0.000244981156253732
0.000242461568492197
0.000238120307638287
0.000231008886311799
0.000219944776863457
0.000203606740222677
0.000180716833774208
0.0001502943509059
0.00011193549932125
6.60478157272052e-05
1.35924913038716e-05
4.65393782026232e-07
4.76212026386875e-07
1.39701640453147e-05
6.80094505974068e-05
0.000115266803103292
0.000154759364088088
0.000186080653398955
0.000209649954182697
0.000226475542439158
0.000237870642276823
0.000245194022922469
0.000249663024579786
0.000252254924396808
0.000253685356029101
0.000254437654913853
0.000254815302960918
0.000254996556337667
0.000255079868294069
0.000255116597942944
0.000255132148619497
0.000255138474911969
0.00025514094548176
0.000255141867351186
0.00025514219126339
0.000255142293206214
0.000255142314462133
0.000255142301513348
0.000255142253859269
0.000255142122790861
0.000255141762273804
0.000255140787238181
0.000255138229547623
0.000255131750961768
0.000255115932154354
0.000255078747479561
0.000254994716569463
0.00025481244500078
0.000254433588202603
0.000253680309892834
0.000252250063590098
0.000249661108884957
0.000245199975836004
0.000237891597024
0.000226519850155043
0.000209724836111701
0.000186188734218898
0.000154895105191228
0.000115414511072829
6.81441934864698e-05
1.40300723921173e-05
4.8012800371612e-07
4.88268697905171e-07
1.43286928130007e-05
6.97249694619575e-05
0.000118105869268318
0.000158506696447522
0.000190532581399045
0.000214625317973735
0.00023182261816566
0.000243469697732143
0.000250955989697453
0.000255525409541516
0.00025817633450112
0.000259639873949991
0.000260409913829199
0.000260796656911114
0.000260982378635318
0.000261067798519802
0.000261105485246012
0.00026112145544045
0.000261127960064679
0.000261130504692499
0.000261131456971421
0.00026113179343963
0.000261131900695715
0.00026113192413739
0.000261131911665085
0.000261131863005943
0.000261131728615731
0.000261131359591494
0.000261130363098593
0.00026112775116954
0.000261121137002668
0.000261104987298338
0.000261067020669236
0.00026098120970343
0.000260795048001071
0.000260408050429456
0.000259638493109931
0.000258177195762958
0.000255531830070594
0.000250973198081508
0.000243504608596742
0.000231882607687765
0.000214715826747607
0.000190653925183776
0.000158651171053697
0.000118256752661512
6.98585393883804e-05
1.43876616465222e-05
4.92134805901204e-07
4.97930816527373e-07
1.46167399414207e-05
7.11047928381371e-05
0.000120388413276706
0.000161518810409702
0.000194110820419962
0.000218624410836087
0.000236120878855562
0.000247971025285795
0.000255588809707265
0.000260239426535096
0.000262938174622944
0.000264428598225425
0.00026521307915311
0.00026560724511317
0.000265796624157716
0.000265883774822454
0.0002659222501755
0.000265938567489683
0.000265945220443638
0.00026594782711542
0.000265948805146332
0.000265949152428262
0.000265949264370295
0.000265949289814754
0.000265949277857671
0.000265949228424213
0.000265949091324268
0.000265948715380868
0.00026594770158028
0.00026594504614556
0.000265938323503731
0.000265921909236979
0.000265883317260604
0.000265796081871813
0.000265606805048585
0.00026521328424885
0.000264430675219204
0.000262944471803032
0.00026025384456743
0.000255616967769987
0.000248019789943015
0.000236196913608099
0.000218731693480849
0.000194247629250262
0.00016167532201773
0.000120546454323593
7.12406885020921e-05
1.46756638995803e-05
5.01777066563084e-07
5.05553745014908e-07
1.4844591391868e-05
7.21979002994821e-05
0.000122196400910163
0.000163904644755301
0.000196945306359444
0.000221792727862702
0.00023952678889114
0.000251538442446676
0.000259260985281479
0.000263976414639823
0.000266713416950948
0.000268225395593112
0.000269021484333149
0.000269421633223849
0.000269613968878846
0.000269702523271549
0.000269741640556073
0.000269758241619878
0.000269765016468031
0.0002697676744962
0.000269768674072525
0.000269769030551719
0.000269769146571705
0.000269769173826523
0.000269769162404973
0.000269769112402786
0.000269768973140693
0.000269768591668602
0.000269767564132218
0.000269764874344065
0.000269758066242241
0.000269741443644328
0.000269702359027532
0.000269614000627495
0.000269422265766026
0.000269023593631281
0.00026823067080947
0.000266724775295919
0.000263998347082195
0.000259299561939857
0.000251600622563557
0.000239618754996191
0.000221917289606304
0.000197098974536758
0.000164075565648945
0.000122364644642741
7.23389057259796e-05
1.49042101147645e-05
5.09406267703914e-07
5.11469442498535e-07
1.50218898719633e-05
7.30500249025179e-05
0.000123605955396698
0.000165765012364583
0.000199155997768829
0.000224264387064015
0.000242184443375061
0.000254322736150423
0.000262127573131989
0.000266894021788717
0.000269661205529182
0.000271190232513187
0.00027199552669576
0.000272400433978757
0.000272595128439458
0.000272684806540074
0.000272724439644611
0.000272741269714779
0.000272748143477302
0.000272750843489014
0.000272751860870733
0.00027275222507708
0.00027275234460382
0.000272752373475219
0.000272752362593931
0.000272752312202802
0.000272752171261567
0.000272751785464122
0.00027275074723393
0.000272748030813888
0.000272741156580653
0.000272724372783479
0.000272684906682167
0.000272595677703269
0.000272402035154485
0.000271999360868376
0.000271198417857439
0.000269677198008624
0.00026692289310197
0.000262175880645102
0.000254397640481911
0.000242291840584534
0.000224406179339062
0.000199327184066734
0.000165951828964843
0.00012378652288948
7.31981949008239e-05
1.50827754500311e-05
5.1534959810813e-07
5.15976492493803e-07
1.51573377194145e-05
7.3702351864176e-05
0.000124685378138052
0.000167190147893471
0.000200850095934371
0.000226159124837004
0.000244222411883006
0.000256458406186269
0.000264326863240493
0.000269132843489842
0.000271923470892022
0.000273465775925531
0.000274278260533021
0.000274686896213101
0.000274883445098597
0.000274974009844992
0.000275014051594796
0.000275031063937145
0.000275038016883573
0.000275040750767107
0.000275041782678527
0.000275042153299988
0.000275042275809435
0.000275042306109507
0.000275042295762509
0.000275042245137596
0.000275042102937588
0.000275041713845939
0.000275040667490857
0.000275037930901485
0.000275031006637148
0.000275014100809774
0.000274974345497911
0.000274884455378121
0.000274689361618133
0.000274283638126833
0.000273476576426881
0.000271943652331748
0.000269168036427251
0.000264384127977583
0.000256545182929777
0.00024434446604322
0.000226317672619304
0.00020103885677885
0.0001673935873959
0.000124879571091689
7.38590754849807e-05
1.52199037256128e-05
5.19900830819255e-07
5.19333726239805e-07
1.52585025382897e-05
7.41906657699429e-05
0.00012549386708419
0.000168258133177884
0.000202120269808451
0.000227580383756574
0.000245751733000351
0.000258061597196311
0.000265978269847659
0.000270814287717483
0.000273622778922171
0.000275175232640872
0.000275993231131571
0.000276404735979061
0.000276602717335168
0.00027669396978929
0.000276734329932499
0.000276751485032537
0.000276758500395964
0.000276761261210625
0.000276762304820416
0.000276762680704809
0.000276762805726097
0.000276762837279017
0.000276762827453683
0.000276762776726834
0.000276762633629373
0.000276762242120289
0.000276761189799931
0.000276758438431184
0.000276751477500714
0.000276734482068423
0.000276694513805472
0.000276604135438223
0.000276407966966345
0.000275999979675508
0.000275188365411551
0.000273646716711604
0.000270855190440188
0.000266043700682995
0.000258159327794081
0.00024588751745379
0.000227754933443594
0.000202326227692372
0.000168478339916132
0.000125702330379366
7.43567809373962e-05
1.53230278400339e-05
5.23314559342294e-07
5.21756809539608e-07
1.53317083816699e-05
7.45448711111203e-05
0.000126080812748685
0.00016903404740499
0.000203043709604403
0.000228614300733942
0.000246864857377286
0.000259229010508348
0.000267181221914081
0.000272039451116682
0.000274861197862
0.000276421210669677
0.000277243332745803
0.000277656992625761
0.000277856054906037
0.000277947828892662
0.000277988431823535
0.000278005696469965
0.00027801276010163
0.000278015541959426
0.000278016594847204
0.000278016974997633
0.00027801710211631
0.000278017134762961
0.000278017125442782
0.000278017074723944
0.000278016931036645
0.000278016537853854
0.000278015481386978
0.000278012719751113
0.000278005733294273
0.000277988675198382
0.00027794855719315
0.000277857833602719
0.000277660901353201
0.000277251297933332
0.00027643642084893
0.000274888498331664
0.000272085498726076
0.000267254072403104
0.000259336797978123
0.000247013411868189
0.000228803971238188
0.000203266232825379
0.000169270779381188
0.000126303723487741
7.47208046966557e-05
1.5398369008189e-05
5.25803153280636e-07
5.23417034284821e-07
1.53819914063104e-05
7.47887947511008e-05
0.000126485527718163
0.000169569659027228
0.000203681798310185
0.000229329365659989
0.000247635296677223
0.000260037545018512
0.000268014797265142
0.000272888747812129
0.000275719923132073
0.00027728534127682
0.000278110428864048
0.000278525647978754
0.000278725497402015
0.000278817653806262
0.000278858436110559
0.000278875782388644
0.00027888288236705
0.000278885680291524
0.000278886740402731
0.000278887123967
0.000278887252824925
0.000278887286424386
0.000278887277590064
0.000278887226969118
0.000278887082951939
0.000278886688728894
0.000278885629664805
0.000278882861594667
0.000278875859040718
0.000278858761005256
0.000278818546396037
0.000278727597456127
0.000278530161316281
0.000278119481758109
0.00027730241474209
0.00027575025298053
0.000272939456824411
0.000268094418557276
0.000260154591128479
0.000247795734147173
0.000229533287929646
0.000203920171422133
0.000169822478948846
0.000126722783222771
7.49747053829266e-05
1.54508944105436e-05
5.27535691281939e-07
5.24441531844407e-07
1.54130979802651e-05
7.49401744408968e-05
0.000126737258952804
0.000169903468180128
0.000204080180731258
0.000229776509800478
0.000248117723995747
0.000260544403849539
0.000268537831655927
0.000273422018824614
0.000276259386122595
0.000277828386942052
0.000278655459446848
0.000279071733054477
0.000279272120624269
0.000279364541489014
0.000279405449377252
0.000279422853602626
0.000279429979811867
0.000279432789581136
0.000279433855173336
0.000279434241428516
0.000279434371720902
0.000279434406150647
0.000279434397781198
0.000279434347330372
0.000279434203203368
0.000279433808487935
0.000279432748178831
0.000279429977026012
0.000279422966603948
0.000279405848387991
0.000279365583186682
0.000279274512258912
0.000279076795424483
0.000278665501771918
0.000277847159768842
0.000276292488605876
0.000273477013671055
0.000268623714036023
0.000260670070931201
0.000248289317890474
0.000229993943159541
0.0002043337493036
0.00017017190839887
0.000126988641447167
7.51360794411723e-05
1.54843122133134e-05
5.28638118406551e-07
5.24914192635406e-07
1.54275050057669e-05
7.50107447952415e-05
0.000126855343537342
0.000170060919839717
0.000204269019930975
0.000229989393768969
0.000248348282910104
0.000260787416199531
0.000268789247635893
0.000273678864573247
0.000276519588289992
0.000278090576110432
0.00027891877592553
0.000279335663176252
0.00027953637179915
0.000279628954533246
0.00027966994139552
0.000279687383169035
0.00027969452698924
0.000279697345075823
0.000279698414744309
0.000279698803141318
0.000279698934654528
0.000279698969832732
0.000279698961910053
0.000279698911669967
0.000279698767585072
0.00027969837280793
0.000279697312403615
0.000279694541133827
0.00027968753024894
0.000279670409723597
0.000279630135520595
0.000279539035747211
0.000279341238540469
0.000278929743740834
0.0002781109411531
0.000276555294577148
0.00027373789638143
0.000268881050472264
0.000260921272227922
0.000248530531751403
0.00023021981305423
0.000204537299792148
0.000170344606783904
0.000127120644525292
7.52166170087431e-05
1.55010847870437e-05
5.2919395031794e-07
5.24876602745318e-07
1.54264422717103e-05
7.50063381458107e-05
0.000126849388560223
0.00017005465126773
0.000204263294548447
0.000229984736476226
0.000248344934457174
0.000260785393538468
0.000268788414543534
0.000273679003037449
0.000276520458788405
0.00027809196021358
0.000278920497507409
0.000279337593620233
0.000279538424673024
0.000279631075814718
0.000279672099418811
0.000279689560395242
0.000279696714162873
0.000279699537490458
0.000279700610051198
0.000279701000153533
0.000279701132731266
0.000279701168600355
0.000279701161106251
0.000279701111096815
0.000279700967165876
0.000279700572697306
0.000279699513260379
0.000279696744700822
0.000279689740492249
0.000279672634917755
0.000279632391785546
0.000279541352533735
0.000279343666236269
0.000278932362696374
0.000278113869877608
0.000276558692853529
0.0002737419574081
0.000268885976182963
0.000260927228831072
0.000248537588108317
0.000230227870495584
0.0002045460245882
0.000170353372866694
0.000127128485041592
7.52221714294045e-05
1.55024444254129e-05
5.29244982649593e-07
5.24328874488359e-07
1.54099148114366e-05
7.49269763742262e-05
0.000126719405894316
0.000169884655183929
0.000204062981760296
0.000229762510712545
0.000248107660369122
0.000260538337091334
0.00026853535848499
0.000273422485299809
0.000276262071040495
0.000277832629744168
0.000278660726741293
0.000279077634790385
0.000279278394406628
0.000279371023188146
0.000279412042734738
0.000279429505286201
0.000279436661675085
0.000279439487314766
0.000279440561641545
0.000279440953030852
0.000279441086518989
0.000279441123018336
0.000279441115931368
0.000279441066172354
0.000279440922515428
0.000279440528752755
0.000279439471414114
0.000279436708550095
0.000279429718502361
0.000279412645857769
0.000279372475289248
0.000279281588581692
0.000279084209146076
0.000278673496953482
0.000277856095966027
0.000276302849817896
0.000273489383719378
0.000268638700751662
0.000260688170557755
0.000248310728311871
0.000230018352833564
0.000204360136531777
0.000170198374012227
0.000127012269385087
7.51527862588577e-05
1.54883968149276e-05
5.28791348489465e-07
5.23230078974627e-07
1.53767138873135e-05
7.47669019236061e-05
0.000126455841658597
0.000169538301936269
0.000203653071794719
0.000229305951781885
0.000247618467070345
0.000260027438231143
0.000268010760118467
0.000272889692332922
0.000275724637188622
0.000277292708056183
0.000278119543053467
0.000278535845686657
0.000278736331085448
0.000278828843094532
0.000278869816390407
0.000278887262388185
0.000278894413898398
0.000278897238857764
0.000278898313795287
0.000278898706035187
0.000278898840266877
0.000278898877328408
0.000278898870626036
0.000278898821146018
0.000278898677910695
0.000278898285318156
0.000278897231365541
0.000278894477547156
0.000278887509985167
0.000278870490144507
0.000278830437785177
0.000278739804440792
0.000278542945776515
0.00027813326027266
0.000277317799644487
0.000275768065907173
0.000272960684155839
0.000268120079170052
0.000260185503121783
0.000247832197445192
0.000229574731222217
0.000203964824470448
0.000169867109699454
0.00012676248729476
7.50026810196943e-05
1.54577205747896e-05
5.27791760226126e-07
5.21497605679e-07
1.53244010215025e-05
7.45145251166744e-05
0.000126039497946893