/*--------------------------------*- C++ -*----------------------------------*\
  =========                 |
  \\      /  F ield         | OpenFOAM: The Open Source CFD Toolbox
   \\    /   O peration     | Website:  https://openfoam.org
    \\  /    A nd           | Version:  10
     \\/     M anipulation  |
\*---------------------------------------------------------------------------*/
FoamFile
{
    format      ascii;
    class       volScalarField;
    location    "7.6";
    object      nut;
}
// * * * * * * * * * * * * * * * * * * * * * * * * * * * * * * * * * * * * * //

dimensions      [0 2 -1 0 0 0 0];

internalField   nonuniform List<scalar> 
2500
(
5.91217750323869e-15
1.16267420767132e-13
4.97581764532129e-13
8.65142634290182e-13
1.18513789945397e-12
1.44597385949327e-12
1.64562168114805e-12
1.78931341510514e-12
1.88670532289014e-12
1.94897510299585e-12
1.98660229258583e-12
2.008132390685e-12
2.01982150851529e-12
2.02585517980613e-12
2.02882203899698e-12
2.03021433685005e-12
2.03083893467729e-12
2.03110710820828e-12
2.03121734127194e-12
2.03126064359352e-12
2.03127679299263e-12
2.03128240330077e-12
2.0312841214694e-12
2.03128449518943e-12
2.03128444148432e-12
2.03128423602886e-12
2.03128384799396e-12
2.03128285635449e-12
2.03128005733098e-12
2.03127229476487e-12
2.03125163547068e-12
2.03119889675893e-12
2.03106953102986e-12
2.03076438581704e-12
2.03007252713825e-12
2.02856635024233e-12
2.02542265988875e-12
2.01914282900856e-12
2.00715965022834e-12
1.98536050661514e-12
1.94763358643746e-12
1.88564688166704e-12
1.78915698748825e-12
1.64714128409044e-12
1.44987063831693e-12
1.19166717597415e-12
8.73645091940842e-13
5.05911428276606e-13
1.19656602547356e-13
6.1862078584465e-15
5.85432548972806e-13
3.0198390185434e-11
1.31923579809026e-10
2.29528981119839e-10
3.14617739489896e-10
3.84135103378427e-10
4.37500590751168e-10
4.76043245375972e-10
5.02271171442211e-10
5.19114923833062e-10
5.2934183374371e-10
5.3522353921058e-10
5.38433956809002e-10
5.40100316542565e-10
5.40924372785693e-10
5.41313340525758e-10
5.41488864660704e-10
5.41564679994425e-10
5.41596036897424e-10
5.41608436306687e-10
5.41613096217438e-10
5.41614732408168e-10
5.41615243543702e-10
5.41615362308341e-10
5.41615353752394e-10
5.41615297550586e-10
5.4161518557871e-10
5.41614896431242e-10
5.41614084421798e-10
5.41611847696097e-10
5.41605931877346e-10
5.41590916883383e-10
5.41554287664159e-10
5.41468352521544e-10
5.41274550135268e-10
5.40854873081927e-10
5.39983527020277e-10
5.38251966566074e-10
5.34964629021051e-10
5.29014087946626e-10
5.18764740605631e-10
5.02000713631251e-10
4.76015274024515e-10
4.37916180047504e-10
3.85173638610077e-10
3.1634027310046e-10
2.31757874506451e-10
1.3409665232767e-10
3.10609082824388e-11
6.11546038030865e-13
2.0756759321409e-12
5.42337848040805e-10
1.86250580722478e-07
3.23477921621947e-07
4.42381160915742e-07
5.39216230073222e-07
6.13431477965593e-07
6.67020025593304e-07
7.03522225672813e-07
7.27010567684079e-07
7.41311234077578e-07
7.49563449825502e-07
7.54084867873764e-07
7.56441370406833e-07
7.57611803807789e-07
7.58166781794497e-07
7.58418400793526e-07
7.58527615327229e-07
7.58573017671415e-07
7.58591071597817e-07
7.58597901813168e-07
7.58600322594309e-07
7.58601092009376e-07
7.58601280365888e-07
7.58601276737623e-07
7.58601199121939e-07
7.58601036275816e-07
7.58600612370577e-07
7.58599426841182e-07
7.58596177709442e-07
7.58587621939563e-07
7.58565991031512e-07
7.58513414247459e-07
7.58390500614394e-07
7.58114270884886e-07
7.57518171610839e-07
7.5628477997338e-07
7.53842011929633e-07
7.49219561078055e-07
7.40877924303983e-07
7.26549785823987e-07
7.03168519675641e-07
6.66986286306603e-07
6.13979765149544e-07
5.40580061976344e-07
4.44639702612643e-07
3.26396922253671e-07
1.8908832933123e-07
5.56451518105836e-10
2.15428963522193e-12
3.67184878929917e-12
9.66120337588209e-10
3.32937086447221e-07
5.76215806223648e-07
7.85739602789387e-07
9.55593656939587e-07
1.08533508521688e-06
1.1788075678722e-06
1.2423949514877e-06
1.28329081399867e-06
1.30819186592341e-06
1.32256864292713e-06
1.33045253865854e-06
1.33456611909119e-06
1.33661196219496e-06
1.33758347611529e-06
1.33802467363406e-06
1.33821652169909e-06
1.33829643709815e-06
1.33832828904515e-06
1.3383403747193e-06
1.33834467655162e-06
1.33834605465192e-06
1.33834639959043e-06
1.33834640048436e-06
1.3383462705314e-06
1.33834599008779e-06
1.33834525724786e-06
1.33834320670854e-06
1.33833758420883e-06
1.33832276852733e-06
1.33828528185531e-06
1.33819409435472e-06
1.33798076155819e-06
1.33750101649735e-06
1.33646515263689e-06
1.33432082656256e-06
1.33007223346591e-06
1.32202978695981e-06
1.30751126900179e-06
1.28256227688351e-06
1.24182322855622e-06
1.17871710704645e-06
1.08612554231528e-06
9.57620926441277e-07
7.89121418930344e-07
5.80583394971007e-07
3.37141999944427e-07
9.86575546984601e-10
3.78372612501558e-12
5.2417955245858e-12
1.37994521417465e-09
4.74476348179544e-07
8.18499191136688e-07
1.11327532586487e-06
1.35130502024513e-06
1.53260651165595e-06
1.66297969737912e-06
1.75157385179325e-06
1.80852761582521e-06
1.84320820746604e-06
1.86324006856377e-06
1.87423310867358e-06
1.87997444666713e-06
1.88283311141218e-06
1.88419239389166e-06
1.88481059960779e-06
1.88507985956212e-06
1.88519223083272e-06
1.88523711805672e-06
1.88525419886915e-06
1.88526030531652e-06
1.88526227764764e-06
1.88526278180914e-06
1.88526279424624e-06
1.88526262182398e-06
1.88526223601271e-06
1.88526122330417e-06
1.8852583889722e-06
1.88525061498616e-06
1.88523011688794e-06
1.88517821005224e-06
1.88505183537572e-06
1.88475593319237e-06
1.88408998599212e-06
1.88265106897018e-06
1.87967055901273e-06
1.87376205572774e-06
1.8625721071452e-06
1.8423623132043e-06
1.80761573253487e-06
1.75084171034671e-06
1.662817047364e-06
1.53349315746971e-06
1.35366698842358e-06
1.11724953980997e-06
8.23633862804501e-07
4.79394722060528e-07
1.40388410661141e-09
5.3740489462091e-12
6.74340952624225e-12
1.77548152640274e-09
6.0872577149886e-07
1.04694625123611e-06
1.42075023581942e-06
1.7215690227325e-06
1.95014120442628e-06
2.11424737669799e-06
2.22566635077835e-06
2.29727004047324e-06
2.34087600199103e-06
2.36607429561936e-06
2.37991218390287e-06
2.38714582170189e-06
2.39075139308202e-06
2.39246794294076e-06
2.39324972160588e-06
2.39359076008618e-06
2.39373334376206e-06
2.39379042399457e-06
2.3938122081711e-06
2.3938200318633e-06
2.39382258137556e-06
2.39382324726216e-06
2.39382327881405e-06
2.39382307328008e-06
2.39382259342211e-06
2.39382132749899e-06
2.39381778542906e-06
2.39380807181057e-06
2.39378245062098e-06
2.39371752989525e-06
2.39355935378939e-06
2.39318871053084e-06
2.39235395882404e-06
2.39054913777485e-06
2.38680857459777e-06
2.3793896617675e-06
2.36533299207345e-06
2.33993514476163e-06
2.2962493865268e-06
2.22482995184713e-06
2.11401400109525e-06
1.95102545010718e-06
1.72402594297038e-06
1.42492247929466e-06
1.05234610128697e-06
6.13896690474958e-07
1.80098954987777e-09
6.88732607024466e-12
8.15179613114648e-12
2.14660770375025e-09
7.33963736213511e-07
1.25893366347187e-06
1.70496787254863e-06
2.06285954717304e-06
2.33423854176734e-06
2.52882280108459e-06
2.66084166945838e-06
2.74566509451162e-06
2.79732966045979e-06
2.82719797636092e-06
2.84361147822511e-06
2.85219886097867e-06
2.85648356184295e-06
2.85852581681608e-06
2.85945716210689e-06
2.85986405548702e-06
2.86003446872658e-06
2.86010283655781e-06
2.86012900549969e-06
2.86013844863625e-06
2.86014155538418e-06
2.86014238550882e-06
2.86014244314393e-06
2.86014221242074e-06
2.86014164894651e-06
2.86014015466752e-06
2.86013597701295e-06
2.86012452753535e-06
2.86009432638036e-06
2.86001776751671e-06
2.85983112296855e-06
2.85939348670342e-06
2.85840723310118e-06
2.85627361516111e-06
2.85184934195398e-06
2.84307047238268e-06
2.82643059277209e-06
2.79635449676967e-06
2.74460240347602e-06
2.65995698492546e-06
2.52853644798593e-06
2.33506524720399e-06
2.06525183927842e-06
1.70906406471305e-06
1.26424691587199e-06
7.39067794084529e-07
2.17236250619997e-09
8.30113242965069e-12
9.4497705789829e-12
2.48892082467529e-09
8.48943774425253e-07
1.45265386069153e-06
1.9638222121989e-06
2.37294286505699e-06
2.68262951857826e-06
2.90444120645839e-06
3.05484980541657e-06
3.1514757686837e-06
3.21034030410772e-06
3.24438622279772e-06
3.26310756124118e-06
3.27291037292937e-06
3.27780622862411e-06
3.28014235929493e-06
3.28120905525448e-06
3.28167574625994e-06
3.28187153094573e-06
3.28195024211741e-06
3.28198045847195e-06
3.28199141461496e-06
3.28199505472365e-06
3.28199605070908e-06
3.28199614179834e-06
3.28199589178483e-06
3.28199525418678e-06
3.28199355473253e-06
3.28198880967828e-06
3.28197581863778e-06
3.28194155889372e-06
3.28185468938547e-06
3.28164280698467e-06
3.28114571837126e-06
3.28002486380152e-06
3.27759881335901e-06
3.27256586364942e-06
3.26257529461436e-06
3.24363224452374e-06
3.20938263032871e-06
3.15043054489196e-06
3.0539724466658e-06
2.90413407516717e-06
2.68338240513613e-06
2.37518256472234e-06
1.96767455952524e-06
1.45765739366474e-06
8.5377516130423e-07
2.51403700762047e-09
9.60006470783005e-12
1.06263173582135e-11
2.79955775226506e-09
9.52893510385422e-07
1.62708552543348e-06
2.19623377726158e-06
2.65078346408335e-06
2.99435966051338e-06
3.24022811786412e-06
3.40687882647929e-06
3.51393236137465e-06
3.57916368614513e-06
3.6169086842356e-06
3.63767698566155e-06
3.64856002066458e-06
3.65400030893449e-06
3.65659891901415e-06
3.65778686320527e-06
3.65830730302611e-06
3.65852598496264e-06
3.65861407936796e-06
3.65864799493735e-06
3.65866035102837e-06
3.6586644960516e-06
3.65866565815787e-06
3.65866578942031e-06
3.65866552503082e-06
3.65866482209563e-06
3.65866293909644e-06
3.65865769072583e-06
3.65864334152475e-06
3.65860551725172e-06
3.6585095994819e-06
3.65827556165723e-06
3.65772623841286e-06
3.65648700743084e-06
3.65380352588331e-06
3.64823429032384e-06
3.63717535254356e-06
3.61620036446915e-06
3.57826693888377e-06
3.51295696010572e-06
3.40606301660148e-06
3.23994369868019e-06
2.99505476428177e-06
2.65284306647742e-06
2.19976421907002e-06
1.63166345824246e-06
9.57338815535633e-07
2.82349684474471e-09
1.07745497735997e-11
1.16758575923306e-11
3.0770429606217e-09
1.04547509198417e-06
1.78190800161458e-06
2.40201988312406e-06
2.89637872445416e-06
3.26959781621106e-06
3.53649058833749e-06
3.7173348327801e-06
3.83350552519211e-06
3.90430918170663e-06
3.94529626278788e-06
3.96786178593958e-06
3.97969520022348e-06
3.98561560007826e-06
3.98844628782774e-06
3.98974175374771e-06
3.99031001911889e-06
3.99054915768817e-06
3.99064567916584e-06
3.99068294213499e-06
3.99069658063384e-06
3.99070119786477e-06
3.99070252312891e-06
3.99070269965061e-06
3.99070242702169e-06
3.99070166676777e-06
3.99069962047135e-06
3.99069392874879e-06
3.99067839295049e-06
3.99063746683781e-06
3.99053368553965e-06
3.99028039205159e-06
3.98968564102574e-06
3.98834337122787e-06
3.98543561888446e-06
3.97939881333671e-06
3.96740779076129e-06
3.9446591399159e-06
3.90350883605987e-06
3.83264498445335e-06
3.71663187807112e-06
3.53627961109659e-06
3.27027552364846e-06
2.89827808258227e-06
2.4052215327347e-06
1.78602959121208e-06
1.04949414780194e-06
3.09954521319253e-09
1.18202068067718e-11
1.25975576506899e-11
3.32111835515989e-09
1.12672832779002e-06
1.91739534257367e-06
2.58174630660831e-06
3.11057818692642e-06
3.5094325263391e-06
3.7944982705741e-06
3.98761325931089e-06
4.11167158054507e-06
4.18730157731884e-06
4.23110091647486e-06
4.25522821134599e-06
4.26788922376078e-06
4.27422869509276e-06
4.27726248929234e-06
4.27865233329832e-06
4.27926272042622e-06
4.27951994922205e-06
4.27962396216751e-06
4.27966422343258e-06
4.2796790246181e-06
4.27968407861596e-06
4.2796855616339e-06
4.27968578710187e-06
4.27968551123727e-06
4.27968470110293e-06
4.27968251052188e-06
4.27967643134541e-06
4.27965986809213e-06
4.2796162687933e-06
4.27950572236317e-06
4.27923586596038e-06
4.27860202026115e-06
4.27717100971552e-06
4.27406995588788e-06
4.26762986006858e-06
4.25483441585083e-06
4.23055432476213e-06
4.18662550286106e-06
4.11096334370127e-06
3.98706980401443e-06
3.79441428642726e-06
3.51014907346605e-06
3.1123707733321e-06
2.58466444169923e-06
1.92109316438961e-06
1.13033620421034e-06
3.34214155607784e-09
1.27371775269818e-11
1.33945865380748e-11
3.53255843581894e-09
1.19700840393355e-06
2.03430805998774e-06
2.73658207721385e-06
3.29491120210074e-06
3.71568096076175e-06
4.01628004385133e-06
4.21988771171864e-06
4.35069659731564e-06
4.4304623597065e-06
4.47667537305179e-06
4.50214558962388e-06
4.51551974485542e-06
4.52222119252401e-06
4.52543088753301e-06
4.52690271090574e-06
4.52754981058055e-06
4.52782287070293e-06
4.52793347417995e-06
4.52797639307336e-06
4.52799223724437e-06
4.52799769095637e-06
4.5279993242354e-06
4.52799960031318e-06
4.5279993251626e-06
4.52799847203975e-06
4.52799615506121e-06
4.52798974029914e-06
4.52797229595694e-06
4.5279264163708e-06
4.52781011114665e-06
4.52752616116643e-06
4.52685903694468e-06
4.52535243761385e-06
4.5220866128925e-06
4.51530252566088e-06
4.50182056702111e-06
4.4762329604848e-06
4.42993118558169e-06
4.35017025485611e-06
4.21954404285534e-06
4.01637512974218e-06
3.71650019881137e-06
3.29667089035013e-06
2.73929604238868e-06
2.03765753476478e-06
1.20025868323835e-06
3.55222010343723e-09
1.35293870525021e-11
1.40733367592178e-11
3.71297580086397e-09
1.25692227777284e-06
2.13378734771384e-06
2.86816149145591e-06
3.45142599089673e-06
3.89071243551739e-06
4.20443741239548e-06
4.41691699788827e-06
4.55343955204395e-06
4.63671059816954e-06
4.68497272808186e-06
4.71158523002202e-06
4.72556730183374e-06
4.73257806200694e-06
4.73593846910167e-06
4.73748074261347e-06
4.73815949941736e-06
4.73844626651444e-06
4.7385626061529e-06
4.73860785548276e-06
4.73862462502393e-06
4.738630440598e-06
4.73863221492492e-06
4.73863254124235e-06
4.73863226982597e-06
4.7386313801543e-06
4.73862895358702e-06
4.73862225107684e-06
4.73860405901241e-06
4.73855625529287e-06
4.73843510218851e-06
4.73813929457432e-06
4.73744416387067e-06
4.73587391287038e-06
4.73246924592744e-06
4.72539512054267e-06
4.7113340295456e-06
4.68464300051626e-06
4.63633814137785e-06
4.5531167237681e-06
4.41680563631795e-06
4.20475840968406e-06
3.89169850778739e-06
3.45323524962738e-06
2.87076854897936e-06
2.13688850606417e-06
1.25989204952606e-06
3.73149940207181e-09
1.42037709570633e-11
1.46426291677321e-11
3.86462088853465e-09
1.30726499549831e-06
2.21725220039606e-06
2.97845227622998e-06
3.58253753777589e-06
4.03728268806847e-06
4.36196993407876e-06
4.58186498448353e-06
4.72316878472599e-06
4.80937739824497e-06
4.85935976290944e-06
4.88693312359143e-06
4.90142769651372e-06
4.9086998629989e-06
4.91218798569453e-06
4.91379013976601e-06
4.91449589651499e-06
4.9147944018586e-06
4.91491567951964e-06
4.91496294989707e-06
4.91498053117989e-06
4.91498667030823e-06
4.91498857451203e-06
4.91498894963212e-06
4.91498868456283e-06
4.91498776435094e-06
4.91498524391389e-06
4.91497829742418e-06
4.91495947791245e-06
4.91491006914455e-06
4.91478488242182e-06
4.91447921554335e-06
4.91376079369173e-06
4.91213757884369e-06
4.90861730995797e-06
4.90130155294869e-06
4.88675775018209e-06
4.85914667240284e-06
4.80917120096632e-06
4.72306324003727e-06
4.58200974536958e-06
4.36255552973511e-06
4.03849408537137e-06
3.58447766591844e-06
2.98105412923123e-06
2.22021435878447e-06
1.31004204987615e-06
3.88228808185219e-09
1.47694960396587e-11
1.511292819143e-11
3.99018214989351e-09
1.3489573730482e-06
2.28630059237159e-06
3.06963031742698e-06
3.69088393879654e-06
4.15837787219914e-06
4.49211115314154e-06
4.7181314187953e-06
4.86338968096258e-06
4.95203172140822e-06
5.00344170135113e-06
5.03181411773389e-06
5.04673586342126e-06
5.05422646083471e-06
5.05782159677317e-06
5.05947407802086e-06
5.06020260556726e-06
5.06051105109681e-06
5.06063653223399e-06
5.06068553564186e-06
5.06070382079167e-06
5.06071024554303e-06
5.06071226756287e-06
5.06071268916981e-06
5.06071243233181e-06
5.06071148711996e-06
5.06070888739756e-06
5.06070173659387e-06
5.06068239690023e-06
5.06063166546461e-06
5.06050316360968e-06
5.06018939974004e-06
5.05945184681399e-06
5.05778510521636e-06
5.05416977357998e-06
5.04665520075576e-06
5.03171402831262e-06
5.00334528792453e-06
4.95199372388762e-06
4.86350775625619e-06
4.71854705356692e-06
4.49298999136477e-06
4.15986314702822e-06
3.69302771124902e-06
3.07232272904609e-06
2.28923035933277e-06
1.35162996112903e-06
4.00729303952249e-09
1.52372018341661e-11
1.54956009728801e-11
4.09259544832102e-09
1.3829872817977e-06
2.34261750751464e-06
3.14396384410451e-06
3.7791940392865e-06
4.25707102674292e-06
4.59817772604875e-06
4.82919636083158e-06
4.97768619667513e-06
5.06832017157125e-06
5.12090099655483e-06
5.14993015147784e-06
5.16520381349176e-06
5.17287482283025e-06
5.17655859415979e-06
5.17825288879199e-06
5.17900040113006e-06
5.1793171682914e-06
5.1794461868413e-06
5.17949665927015e-06
5.17951554762294e-06
5.17952222143404e-06
5.17952434884652e-06
5.17952481380923e-06
5.17952456642212e-06
5.17952360127324e-06
5.17952093565794e-06
5.17951361610141e-06
5.17949385076913e-06
5.17944204342755e-06
5.1793108521108e-06
5.17899052438872e-06
5.1782374602043e-06
5.17653540851307e-06
5.17284291026098e-06
5.16516685314441e-06
5.14990276265096e-06
5.12091807958625e-06
5.06844752209453e-06
4.97802752320205e-06
4.8298888143066e-06
4.59936761236552e-06
4.25886625993581e-06
3.78160088293747e-06
3.14682948616415e-06
2.34561026499254e-06
1.3856366200585e-06
4.10943816113314e-09
1.56182937485246e-11
1.58022551507531e-11
4.17487210366684e-09
1.41035707087413e-06
2.38789329332346e-06
3.2037110727656e-06
3.85017069774308e-06
4.33639558277946e-06
4.68343646663799e-06
4.91848306368137e-06
5.06958113737807e-06
5.16182570660493e-06
5.21535513368764e-06
5.2449175525757e-06
5.2604776616151e-06
5.26829590817272e-06
5.27205222457669e-06
5.27378085021178e-06
5.27454400539426e-06
5.27486765785889e-06
5.2749996186038e-06
5.27505132170428e-06
5.27507072085917e-06
5.27507760916469e-06
5.27507982952457e-06
5.27508033421297e-06
5.27508009704528e-06
5.27507911653724e-06
5.27507639717249e-06
5.27506894036943e-06
5.27504883172642e-06
5.27499616141767e-06
5.27486281842019e-06
5.27453724290993e-06
5.27377177451371e-06
5.27204146838402e-06
5.26828717952999e-06
5.26048172966852e-06
5.24495874955719e-06
5.21548003768318e-06
5.16211168697272e-06
5.07013965001734e-06
4.91945030630245e-06
4.68494460927055e-06
4.33852352487118e-06
3.85288428968232e-06
3.20681546811128e-06
2.39102802418243e-06
1.41305254638462e-06
4.19170207550552e-09
1.59243185656459e-11
1.60441827273964e-11
4.23995314908048e-09
1.4320391846268e-06
2.42375521777774e-06
3.25103471438332e-06
3.90639344730674e-06
4.3992399528212e-06
4.75099355342193e-06
4.98924368527562e-06
5.14241966871211e-06
5.23594981080044e-06
5.29023801987714e-06
5.32022798819874e-06
5.33601834093268e-06
5.34395526028645e-06
5.34777022171081e-06
5.34952669058791e-06
5.35030257861187e-06
5.3506318593054e-06
5.35076623784406e-06
5.35081895960726e-06
5.35083878611875e-06
5.35084585685323e-06
5.35084815809976e-06
5.35084869869677e-06
5.35084847215137e-06
5.35084748036238e-06
5.35084471811081e-06
5.35083715164453e-06
5.35081677054787e-06
5.35076341882832e-06
5.35062838070609e-06
5.35029867288548e-06
5.34952343282305e-06
5.34777085144372e-06
5.34396780670775e-06
5.33606017868256e-06
5.32033262166708e-06
5.29046331168367e-06
5.23638483892932e-06
5.14318483345262e-06
4.99047702262419e-06
4.75281769337039e-06
4.40171062464126e-06
3.90944144305796e-06
3.2544249166084e-06
2.42709231850124e-06
1.43483601432873e-06
4.25698159444135e-09
1.61664455962055e-11
1.62319251784646e-11
4.29059414755859e-09
1.44894114421176e-06
2.45171382134509e-06
3.28793521237241e-06
3.95024263203738e-06
4.44826544568641e-06
4.80370827195963e-06
5.04447029925928e-06
5.19927859135113e-06
5.29382070381169e-06
5.34870756301702e-06
5.37903568599321e-06
5.39500862908275e-06
5.40303993134104e-06
5.40690167976438e-06
5.40868043742579e-06
5.40946655675523e-06
5.40980037979596e-06
5.40993672030334e-06
5.40999027481083e-06
5.41001045449253e-06
5.41001767849514e-06
5.41002004929813e-06
5.41002062196e-06
5.41002040613067e-06
5.41001940662698e-06
5.41001661106949e-06
5.4100089588095e-06
5.40998836560032e-06
5.40993448563519e-06
5.40979813579153e-06
5.40946523057195e-06
5.40868242373767e-06
5.40691257436822e-06
5.40307169053014e-06
5.395084679579e-06
5.37919804161604e-06
5.34902477251523e-06
5.29439336390451e-06
5.20023676684854e-06
5.04595602043799e-06
4.80583848668838e-06
4.45107788373951e-06
3.95363809821463e-06
3.291640704446e-06
2.45529536282973e-06
1.45188008347777e-06
4.30798444906069e-09
1.63550651689816e-11
1.63749610986252e-11
4.32928126957865e-09
1.46188002534862e-06
2.47312412176077e-06
3.31620270421122e-06
3.98384498134733e-06
4.48584746984503e-06
4.8441312696094e-06
5.08683120126828e-06
5.2429013939835e-06
5.33822761339925e-06
5.39357947633359e-06
5.42417096867909e-06
5.44028653344075e-06
5.44839178824223e-06
5.45229031907417e-06
5.45408666330274e-06
5.45488088808688e-06
5.45521832648547e-06
5.45535623760083e-06
5.45541046395387e-06
5.45543093183131e-06
5.45543828307732e-06
5.45544071304213e-06
5.45544131404165e-06
5.45544110880995e-06
5.45544010466912e-06
5.45543728414393e-06
5.45542956654353e-06
5.4554088121775e-06
5.45535453215464e-06
5.45521718994642e-06
5.45488186426374e-06
5.45409332095257e-06
5.45231035788688e-06
5.44844068934871e-06
5.44039319756997e-06
5.42438519572906e-06
5.39397977351717e-06
5.3389256623926e-06
5.24403723529076e-06
5.08855241077437e-06
4.84655220375592e-06
4.48899225198234e-06
3.98758903711975e-06
3.32023791001416e-06
2.47697592302468e-06
1.46498862526904e-06
4.34715154478247e-09
1.64995033343648e-11
1.64815058716266e-11
4.35817623134076e-09
1.47156568014556e-06
2.48916041021074e-06
3.33738607077991e-06
4.00903873388103e-06
4.5140379759305e-06
4.87446517638915e-06
5.11863030855393e-06
5.2756568519282e-06
5.37157886401681e-06
5.42728505339226e-06
5.45807784373625e-06
5.47430277574032e-06
5.48246494015222e-06
5.48639188387809e-06
5.48820186871316e-06
5.48900240879567e-06
5.4893426787776e-06
5.48948182792755e-06
5.48953658845673e-06
5.4895572883702e-06
5.48956474400597e-06
5.48956722379292e-06
5.4895678496426e-06
5.48956765475805e-06
5.48956664859535e-06
5.48956381026926e-06
5.48955604471932e-06
5.48953517203273e-06
5.48948059886273e-06
5.48934252938622e-06
5.48900542640098e-06
5.488212659231e-06
5.48642001183652e-06
5.48252902651867e-06
5.47443663255042e-06
5.45833833115261e-06
5.42775985745645e-06
5.37239016612058e-06
5.27695466710482e-06
5.12056878683125e-06
4.87715844973045e-06
4.51750015446459e-06
4.0131238914094e-06
3.34175385317751e-06
2.4932952623926e-06
1.47486056064911e-06
4.37660612773126e-09
1.66078410440111e-11
1.65584042947243e-11
4.37908541826777e-09
1.47859128770344e-06
2.50080238329916e-06
3.35277620324321e-06
4.02735501085194e-06
4.53454554898815e-06
4.8965438148013e-06
5.14178575886899e-06
5.29951720752246e-06
5.39587977774457e-06
5.45184888861865e-06
5.48279161228514e-06
5.49909833495839e-06
5.50730324410678e-06
5.51125162779992e-06
5.51307195715484e-06
5.51387731289545e-06
5.5142197557146e-06
5.51435986225843e-06
5.51441504017541e-06
5.51443592411661e-06
5.51444346436873e-06
5.51444598575719e-06
5.5144466333009e-06
5.51444644843606e-06
5.51444544243229e-06
5.51444259240685e-06
5.5144347936592e-06
5.51441383872717e-06
5.51435906191073e-06
5.51422048612335e-06
5.51388214021713e-06
5.5130864029363e-06
5.51128690810231e-06
5.50738077339144e-06
5.49925632379009e-06
5.4830933049223e-06
5.45239039115574e-06
5.39679312823142e-06
5.30096219088666e-06
5.14392371432672e-06
4.89949038071719e-06
4.53830764759632e-06
4.03176874035934e-06
3.35747176223468e-06
2.50522379920866e-06
1.48208091566655e-06
4.39812521245269e-09
1.66868185123006e-11
1.66110926393439e-11
4.39344730603518e-09
1.48342946153295e-06
2.5088298176204e-06
3.36339994326928e-06
4.04001136067177e-06
4.54872870475522e-06
4.91182530884517e-06
5.15782286294422e-06
5.31605099119039e-06
5.41272539089185e-06
5.468881515552e-06
5.49993145296215e-06
5.51629699594962e-06
5.52453283221247e-06
5.52849682873602e-06
5.53032474327339e-06
5.53113365685355e-06
5.53147771882239e-06
5.53161854629778e-06
5.53167404289481e-06
5.53169507011166e-06
5.53170267807685e-06
5.53170523396308e-06
5.5317059004057e-06
5.53170572517779e-06
5.53170472111571e-06
5.5317018645472e-06
5.53169404516636e-06
5.53167303871926e-06
5.53161813428074e-06
5.53147923921151e-06
5.53114010111448e-06
5.53034244771873e-06
5.5285384831353e-06
5.52462235388579e-06
5.51647655934566e-06
5.50027010371456e-06
5.46948310555157e-06
5.41373119989414e-06
5.31763027283502e-06
5.16014446270703e-06
4.91500757258886e-06
4.5527734858498e-06
4.04473947133246e-06
3.36841460519061e-06
2.51353576063854e-06
1.48711698330053e-06
4.41312757424541e-09
1.67418017819963e-11
1.66436055948332e-11
4.402331955437e-09
1.48643203195786e-06
2.51382282950884e-06
3.37002094458817e-06
4.04791315216108e-06
4.55759766944865e-06
4.9213941042755e-06
5.16787624986266e-06
5.32642521543427e-06
5.42330265550233e-06
5.47958159626914e-06
5.51070259503583e-06
5.52710750833e-06
5.53536426018694e-06
5.53933893071293e-06
5.54117209076111e-06
5.54198349527007e-06
5.54232870661082e-06
5.54247005436946e-06
5.54252578590575e-06
5.54254692183718e-06
5.54255458317618e-06
5.54255716751477e-06
5.54255785042599e-06
5.5425576844188e-06
5.54255668373106e-06
5.54255382498425e-06
5.5425459958371e-06
5.54252496469569e-06
5.54246999911367e-06
5.54233094798416e-06
5.5419914096163e-06
5.54119275274852e-06
5.53938636858647e-06
5.5354646718711e-06
5.52730669700254e-06
5.51107495247295e-06
5.48023818123291e-06
5.42439347364088e-06
5.32812868519477e-06
5.17036884581933e-06
4.92479765469136e-06
4.56191044176927e-06
4.05294266338676e-06
3.37534543366577e-06
2.51880898006387e-06
1.49031779109772e-06
4.42267236290425e-09
1.67767878981987e-11
1.66586055202284e-11
4.40644683084195e-09
1.48783175535807e-06
2.51616497035375e-06
3.3731439086205e-06
4.0516586700273e-06
4.56182010171654e-06
4.92596710935476e-06
5.17269626219878e-06
5.33141190946735e-06
5.42839704634237e-06
5.48474256011615e-06
5.51590297017403e-06
5.53233024320092e-06
5.54059916642958e-06
5.5445802049267e-06
5.5464165755982e-06
5.5472295465321e-06
5.54757550262922e-06
5.54771719969665e-06
5.54777309620489e-06
5.54779431298861e-06
5.54780201681043e-06
5.54780462536392e-06
5.54780532312073e-06
5.5478051659752e-06
5.54780416946749e-06
5.54780131155596e-06
5.54779348118499e-06
5.54777244815558e-06
5.54771748025472e-06
5.54757841994829e-06
5.54723883578163e-06
5.54644000038411e-06
5.54463304411266e-06
5.54070975330807e-06
5.53254778888915e-06
5.51630690906947e-06
5.48545079129386e-06
5.42956793724968e-06
5.33323281093694e-06
5.17535128516226e-06
4.92958199965423e-06
4.56639044868287e-06
4.05697997830302e-06
3.37877081508013e-06
2.5214271929319e-06
1.49191521323794e-06
4.4274628923338e-09
1.67944273284876e-11
1.66574121950292e-11
4.40614318975168e-09
1.487744316036e-06
2.51604679669757e-06
3.37301949534564e-06
4.05154501543795e-06
4.56172762099562e-06
4.92590058107952e-06
5.17265602528195e-06
5.33139526393546e-06
5.42839966934679e-06
5.48475970167559e-06
5.51593029833108e-06
5.53236426484631e-06
5.54063733064894e-06
5.54462079744202e-06
5.54645852493066e-06
5.54727222461692e-06
5.54761856159438e-06
5.54776045596493e-06
5.54781645642674e-06
5.5478377305776e-06
5.54784546822423e-06
5.54784809789237e-06
5.54784880935282e-06
5.54784866070803e-06
5.54784766877525e-06
5.5478448139175e-06
5.5478369896672e-06
5.54781597582631e-06
5.54776106168391e-06
5.54762213380476e-06
5.54728284619462e-06
5.54648462710179e-06
5.54467887131165e-06
5.54075778047226e-06
5.53259960985954e-06
5.51636487465017e-06
5.48551807109742e-06
5.42964836391926e-06
5.33333039073082e-06
5.17546931620975e-06
4.92972184981205e-06
4.5665501635236e-06
4.05715294165117e-06
3.37894461277089e-06
2.52158265158965e-06
1.492025350798e-06
4.42785113550024e-09
1.67960465031129e-11
1.66400291874041e-11
4.40142247059055e-09
1.48617014824145e-06
2.51346854439433e-06
3.36964756081907e-06
4.04757173623271e-06
4.55731968818513e-06
4.92119415775502e-06
5.16775556408653e-06
5.32637579734851e-06
5.42331153844357e-06
5.479634477996e-06
5.51078637514178e-06
5.52721160803553e-06
5.53548094342183e-06
5.53946299318643e-06
5.54130027712108e-06
5.54211389630864e-06
5.54246026451883e-06
5.54260221087848e-06
5.54265825719923e-06
5.54267956637883e-06
5.54268732955229e-06
5.54268997727815e-06
5.54269070123969e-06
5.54269056067042e-06
5.54268957370475e-06
5.5426867242821e-06
5.54267891403338e-06
5.54265794181228e-06
5.54260314064162e-06
5.54246449364466e-06
5.54212585920402e-06
5.54132907942389e-06
5.53952634937704e-06
5.53561134520538e-06
5.52746490410136e-06
5.51125182564194e-06
5.48044332155023e-06
5.42463846285947e-06
5.32842558234521e-06
5.1707274980417e-06
4.92522199298104e-06
4.5623942947094e-06
4.05346577563435e-06
3.37587014686626e-06
2.51927746661035e-06
1.49064906793153e-06
4.4238387174003e-09
1.67816496497338e-11
1.6605157585739e-11
4.39193943084121e-09
1.48299505147267e-06
2.50824071326563e-06
3.36277759727804e-06
4.0394411152328e-06
4.54826377737612e-06
4.91149093878151e-06
5.15762181155884e-06
5.31597031268164e-06
5.4127435123775e-06
5.46897439909373e-06
5.50007694951533e-06
5.51647715037699e-06
5.5247344772028e-06
5.5287110877972e-06
5.53054605551884e-06
5.53135875730891e-06
5.53170479717029e-06
5.5318466467587e-06
5.53190267958419e-06
5.53192400087735e-06
5.53193178092207e-06
5.53193444339618e-06
5.53193517850856e-06
5.53193504556772e-06
5.53193406413597e-06
5.5319312230758e-06
5.53192343603678e-06
5.53190253097769e-06
5.53184790922765e-06
5.53170970823663e-06
5.53137212116514e-06
5.53057768607226e-06
5.5287799815031e-06
5.52487530687518e-06
5.51674923023926e-06
5.5005746390081e-06
5.46983580398367e-06
5.4141516290655e-06
5.31813864664489e-06
5.16075701503575e-06
4.91573026233684e-06
4.55359499439756e-06
4.04562470267191e-06
3.36929947090553e-06
2.51432300301441e-06
1.48767170951013e-06
4.41507678434439e-09
1.67499264724724e-11
1.65501756753469e-11
4.37699758612891e-09
1.4779891456078e-06
2.49998251470639e-06