/*--------------------------------*- C++ -*----------------------------------*\
  =========                 |
  \\      /  F ield         | OpenFOAM: The Open Source CFD Toolbox
   \\    /   O peration     | Website:  https://openfoam.org
    \\  /    A nd           | Version:  10
     \\/     M anipulation  |
\*---------------------------------------------------------------------------*/
FoamFile
{
    format      ascii;
    class       volScalarField;
    location    "7.6";
    object      omega;
}
// * * * * * * * * * * * * * * * * * * * * * * * * * * * * * * * * * * * * * //

dimensions      [0 0 -1 0 0 0 0];

internalField   nonuniform List<scalar> 
2500
(
127911.275820641
127920.887337451
127918.020169345
127915.787770628
127914.344797374
127913.472586131
127912.963201514
127912.673516698
127912.513896729
127912.429586152
127912.386139185
127912.364804101
127912.354732498
127912.349885548
127912.347549321
127912.346259824
127912.345690008
127912.345250479
127912.344849406
127912.344592069
127912.344382554
127912.344208715
127912.344068948
127912.343986329
127912.34389985
127912.343832236
127912.343813137
127912.34381496
127912.343845155
127912.343906942
127912.344007453
127912.344196054
127912.344426276
127912.344779723
127912.345383018
127912.346538151
127912.348912953
127912.353836373
127912.36458261
127912.386557265
127912.430614225
127912.515993072
127912.675648838
127912.96394978
127913.47093397
127914.338298546
127915.78046155
127918.025168544
127920.909076024
127911.244291283
31884.7578509305
14169.9430200275
14168.5485443002
14167.4942558682
14166.8029765932
14166.3756710014
14166.1195966359
14165.9702248987
14165.8858082235
14165.8398360662
14165.8157512986
14165.8036464431
14165.7978081137
14165.7950908513
14165.793867147
14165.7933262512
14165.7930965077
14165.7929915335
14165.7929360527
14165.7929057158
14165.7928854633
14165.79286982
14165.7928575314
14165.7928491745
14165.7928417907
14165.7928359069
14165.7928330811
14165.7928320348
14165.7928329424
14165.7928371189
14165.7928473524
14165.7928710948
14165.7929213525
14165.793032606
14165.7932848321
14165.7938637371
14165.7951712183
14165.7980387814
14165.8041342823
14165.8165836268
14165.8410684336
14165.8874053572
14165.971873544
14166.1206603463
14166.3753257576
14166.8008923003
14167.4927210969
14168.5540491411
14169.9590538667
31884.7148208546
31796.5731551496
3532.46747469483
50.8602252380435
50.8549031354562
50.8514517042358
50.849328944191
50.8480601064442
50.8473206159189
50.8469024115592
50.8466741598361
50.8465542945946
50.8464938563589
50.846464607368
50.8464509933602
50.8464448873749
50.8464422352659
50.8464411244476
50.8464406557634
50.8464404451295
50.8464403443924
50.8464402860972
50.8464402441217
50.8464402116197
50.8464401888002
50.8464401700204
50.8464401548282
50.8464401458871
50.8464401406484
50.8464401390869
50.8464401475788
50.8464401791169
50.8464402657607
50.846440483496
50.8464410025923
50.8464422240266
50.8464450797342
50.8464515817706
50.8464658866715
50.8464962415597
50.8465581854568
50.8466798068073
50.8469095943822
50.8473280293377
50.8480650647722
50.8493281649813
50.8514454652261
50.8549060208565
50.8602756189806
3532.47650257443
31796.5829345224
31715.7050048482
3523.35800192905
50.7284508781924
50.722921755046
50.7194312033436
50.7173342359249
50.7161072959495
50.7154054594259
50.7150147808637
50.7148043521351
50.7146950905327
50.7146405275399
50.7146143437958
50.7146022581658
50.7145968864006
50.7145945822478
50.7145936303744
50.7145932424682
50.7145930799919
50.7145930082233
50.7145929700037
50.7145929431088
50.7145929218459
50.7145929066367
50.714592894727
50.7145928848707
50.7145928780968
50.714592872798
50.7145928690284
50.7145928700783
50.7145928873608
50.714592949575
50.7145931246875
50.7145935573389
50.7145945928329
50.714597051131
50.7146027189198
50.7146153263934
50.7146423507798
50.7146980971321
50.7148088055366
50.7150206113306
50.7154118093288
50.7161122698779
50.7173358026119
50.7194318924495
50.7229406256463
50.7285360617949
3523.37225620222
31715.8210504967
31648.8020305417
3515.91588058814
50.6219650027816
50.617107032909
50.6141272551863
50.6123821258768
50.6113840938078
50.6108242002388
50.6105174400608
50.6103542858615
50.6102704204239
50.6102288740152
50.6102090654429
50.6101999748674
50.6101959579226
50.6101942485358
50.6101935499487
50.6101932723719
50.6101931622613
50.6101931174508
50.6101930958395
50.6101930809399
50.6101930685871
50.6101930596319
50.6101930529786
50.6101930472818
50.6101930427342
50.6101930382767
50.6101930339256
50.6101930317205
50.6101930377418
50.6101930741567
50.6101931960778
50.6101935059746
50.6101942553119
50.6101960550664
50.6102002442218
50.6102096415429
50.6102299512292
50.6102722239582
50.6103570173588
50.6105211257089
50.610828411679
50.6113878176583
50.6123846788643
50.6141327836463
50.617136184958
50.6220695450679
3515.93337996323
31649.0144303811
31598.2300988589
3510.37602549343
50.5435984252861
50.5398291730133
50.5375828862916
50.5363006185749
50.5355838507903
50.5351893673207
50.5349764782258
50.534864545911
50.5348075023579
50.534779421263
50.5347660947227
50.5347600015025
50.5347573188688
50.5347561834183
50.5347557235841
50.5347555448656
50.5347554774614
50.5347554525363
50.5347554422636
50.5347554355046
50.5347554292965
50.5347554247089
50.5347554215673
50.5347554186971
50.534755415944
50.5347554126367
50.534755408737
50.5347554057609
50.5347554056924
50.5347554230921
50.5347554987953
50.5347556982203
50.5347561840783
50.534757362444
50.5347601253969
50.5347663626187
50.5347799283167
50.5348083655857
50.5348658833428
50.5349783340046
50.5351915636335
50.5355859535739
50.5363027564999
50.537589594629
50.5398596823272
50.5437018093861
3510.39382410131
31598.4917087962
31562.9732132852
3506.58011282376
50.4905308443409
50.4878871709626
50.4863552869821
50.485502531997
50.485036403505
50.4847845829312
50.4846506163685
50.4845809110192
50.4845456454596
50.4845283695137
50.4845201965076
50.4845164676181
50.4845148293724
50.4845141385701
50.484513861041
50.4845137554679
50.4845137176613
50.4845137052443
50.4845137014512
50.4845136993924
50.4845136969163
50.4845136949773
50.4845136938972
50.48451369271
50.4845136911971
50.484513688975
50.484513685966
50.4845136830462
50.4845136811427
50.4845136876715
50.4845137298437
50.4845138475654
50.4845141365011
50.4845148434037
50.484516510196
50.4845202900052
50.4845285493618
50.4845459577398
50.4845814071241
50.4846513200095
50.4847854165997
50.4850371970567
50.4855036664871
50.4863606720671
50.4879125435269
50.4906177755602
3506.59571538754
31563.2317181976
31540.1322925168
3504.16658619894
50.4571920201753
50.4554903141687
50.4545305009104
50.4540090544642
50.4537301609991
50.4535821791437
50.4535045188995
50.4534644943565
50.4534443703961
50.4534345483723
50.4534299106822
50.4534277967742
50.4534268689631
50.453426478773
50.4534263231604
50.4534262652121
50.4534262456722
50.4534262403287
50.4534262393666
50.4534262393735
50.4534262389222
50.4534262383399
50.4534262383404
50.4534262380452
50.4534262373046
50.4534262359357
50.4534262338571
50.4534262315097
50.4534262295046
50.4534262309739
50.4534262523793
50.4534263167645
50.453426476648
50.4534268709252
50.4534278044218
50.4534299277135
50.4534345821652
50.4534444314216
50.4534645954597
50.4535046600604
50.4535823082446
50.4537301863797
50.4540092903799
50.4545337743807
50.4555081246899
50.4572561739492
3504.17868885821
31540.3512467531
31526.2945648184
3502.73298385735
50.4376278380291
50.4366115029493
50.4360528273377
50.4357563451979
50.4356010862903
50.4355201332206
50.4354782005897
50.4354567791358
50.4354460659824
50.4354408514154
50.4354383916058
50.4354372704282
50.4354367784097
50.4354365718925
50.43543649012
50.4354364603364
50.4354364511685
50.4354364495151
50.4354364497453
50.4354364502178
50.4354364503693
50.4354364503969
50.4354364506232
50.4354364506133
50.4354364502721
50.4354364495066
50.435436448192
50.4354364465457
50.43543644489
50.4354364446581
50.4354364547204
50.435436487518
50.4354365706739
50.4354367772034
50.4354372675767
50.4354383848284
50.4354408384866
50.435446044305
50.4354567453767
50.4354781416764
50.4355200012114
50.4356008002112
50.4357560632958
50.436054316445
50.4366223636227
50.4376702610034
3502.74144712629
31526.4590858843
31518.4119221122
3501.93286213523
50.4268408191843
50.4262728250195
50.4259681474309
50.4258100579521
50.4257289489347
50.4256873731568
50.42566610788
50.4256553339044
50.42564997066
50.4256473652239
50.4256461364068
50.4256455759231
50.4256453298477
50.4256452267155
50.4256451861812
50.4256451717973
50.4256451679424
50.4256451676994
50.4256451680973
50.4256451685889
50.4256451688922
50.4256451691111
50.4256451693362
50.4256451693941
50.4256451692584
50.4256451688314
50.4256451680572
50.4256451670185
50.4256451658758
50.4256451653224
50.4256451696832
50.4256451853849
50.425645226334
50.4256453287013
50.4256455721871
50.425646127213
50.4256473469139
50.4256499383019
50.4256552804666
50.4256660176033
50.4256872031784
50.4257286212958
50.425809606707
50.4259685403754
50.4262786534169
50.4268663243533
3501.93827218638
31518.5239315527
31514.1694566536
3501.5111436966
50.4212242569434
50.420925181905
50.4207684345299
50.4206888379616
50.4206488031084
50.4206286212954
50.4206184252159
50.4206132998784
50.4206107589376
50.420609526191
50.420608944515
50.4206086788671
50.4206085621316
50.4206085132681
50.4206084942101
50.4206084876961
50.4206084862139
50.4206084863228
50.4206084866791
50.4206084870477
50.4206084873094
50.4206084875141
50.4206084876766
50.4206084877435
50.4206084876916
50.4206084874592
50.420608487031
50.420608486429
50.4206084857337
50.4206084852862
50.4206084870315
50.4206084941486
50.4206085133488
50.4206085616446
50.4206086766224
50.4206089385747
50.4206095139564
50.4206107367185
50.4206132618782
50.4206183584868
50.4206284921776
50.420648545186
50.4206884218528
50.420768325433
50.4209279360461
50.4212383471298
3501.51433924817
31514.2395612536
31512.0030331429
3501.30030667488
50.4184503783581
50.4183011608123
50.4182246537335
50.4181865971786
50.4181678207711
50.4181585093179
50.4181538618037
50.4181515432435
50.4181503980082
50.4181498428422
50.418149580628
50.4181494606713
50.4181494078931
50.4181493858266
50.4181493772884
50.4181493744934
50.4181493739796
50.4181493741335
50.4181493743802
50.4181493746148
50.4181493747905
50.4181493749304
50.4181493750309
50.41814937508
50.4181493750596
50.418149374938
50.4181493747139
50.4181493743887
50.4181493740029
50.418149373724
50.4181493743702
50.418149377444
50.4181493860557
50.4181494078503
50.4181494597478
50.4181495778172
50.4181498367719
50.4181503866332
50.4181515229642
50.4181538238871
50.4181584304888
50.4181676518112
50.4181862912845
50.4182244040171
50.4183022879182
50.4184575876256
3501.30206583562
31512.0438025517
31510.9494626384
3501.19993745744
50.4171459783252
50.4170750924713
50.4170394942517
50.4170221328037
50.4170137253172
50.4170096225897
50.4170075992767
50.4170065973131
50.4170061040562
50.4170058650384
50.4170057519877
50.4170057001628
50.4170056773277
50.4170056677912
50.4170056641313
50.4170056629941
50.4170056628414
50.4170056629502
50.4170056630972
50.4170056632308
50.4170056633334
50.417005663415
50.4170056634707
50.4170056634996
50.4170056634907
50.4170056634297
50.4170056633179
50.4170056631525
50.4170056629529
50.4170056627978
50.4170056630192
50.4170056642942
50.4170056680036
50.4170056774502
50.4170056999373
50.4170057509857
50.4170058626777
50.4170060994144
50.4170065885048
50.4170075811427
50.4170095806826
50.4170136272674
50.4170219374526
50.4170392670516
50.4170754699189
50.4171494143733
3501.20084639246
31510.9716758565
31510.459949831
3501.15429251918
50.4165600844781
50.4165278887405
50.4165120336649
50.4165044453027
50.4165008363068
50.4164991028624
50.4164982581177
50.4164978428215
50.4164976390092
50.4164975402537
50.4164974934624
50.4164974719621
50.4164974624731
50.4164974585149
50.4164974570105
50.4164974565711
50.4164974565347
50.4164974565956
50.4164974566743
50.416497456744
50.4164974567981
50.4164974568408
50.4164974568689
50.4164974568834
50.416497456879
50.4164974568494
50.4164974567958
50.4164974567157
50.4164974566184
50.4164974565402
50.4164974566093
50.4164974571177
50.4164974586579
50.4164974626045
50.4164974719923
50.4164974932448
50.4164975395955
50.416497637572
50.4164978397385
50.4164982506308
50.4164990827778
50.4165007843398
50.4165043326901
50.4165118748309
50.4165279709895
50.4165616160562
3501.15473589142
31510.4713645318
31510.2421155496
3501.13441454986
50.4163081474754
50.4162941163065
50.4162873325444
50.4162841434751
50.4162826529819
50.4162819481377
50.4162816086966
50.416281443016
50.4162813619434
50.4162813226523
50.4162813039981
50.4162812954047
50.4162812916054
50.4162812900225
50.416281289428
50.4162812892636
50.4162812892584
50.4162812892906
50.4162812893293
50.4162812893629
50.416281289389
50.4162812894093
50.4162812894221
50.4162812894285
50.4162812894258
50.4162812894117
50.4162812893867
50.4162812893493
50.4162812893039
50.4162812892663
50.4162812892853
50.4162812894815
50.4162812900993
50.416281291693
50.4162812954807
50.4162813040282
50.4162813225979
50.4162813617134
50.4162814422554
50.4162816060442
50.4162819392875
50.4162826273569
50.4162840835892
50.4162872366342
50.4162941061416
50.4163087873165
3501.1346197405
31510.2476781228
31510.1491552166
3501.12611762763
50.4162043857151
50.4161984999507
50.4161957029976
50.4161944103344
50.4161938162316
50.4161935395366
50.4161934078443
50.4161933440239
50.4161933128821
50.4161932977833
50.416193290599
50.4161932872805
50.4161932858107
50.416193285199
50.4161932849721
50.4161932849125
50.4161932849136
50.416193284929
50.4161932849465
50.4161932849614
50.4161932849729
50.4161932849816
50.4161932849866
50.4161932849888
50.4161932849869
50.41619328498
50.4161932849684
50.4161932849513
50.4161932849307
50.4161932849135
50.4161932849174
50.4161932849901
50.4161932852297
50.4161932858529
50.4161932873333
50.4161932906631
50.4161932978662
50.4161933129763
50.416193344
50.4161934070734
50.4161935358989
50.4161938043209
50.4161943805343
50.4161956506534
50.4161984735724
50.4162046362711
3501.12620810308
31510.1517377782
31510.111169395
3501.12280771013
50.4161636131387
50.4161612301988
50.4161601159216
50.4161596091693
50.4161593799885
50.4161592748288
50.4161592253598
50.4161592015573
50.4161591899745
50.4161591843559
50.4161591816764
50.4161591804353
50.4161591798846
50.4161591796556
50.4161591795716
50.4161591795504
50.4161591795517
50.4161591795582
50.4161591795654
50.4161591795712
50.4161591795756
50.4161591795787
50.4161591795802
50.4161591795803
50.4161591795788
50.4161591795752
50.4161591795695
50.4161591795616
50.4161591795522
50.4161591795441
50.4161591795438
50.4161591795696
50.4161591796591
50.4161591798951
50.4161591804563
50.416159181715
50.4161591844262
50.416159190088
50.4161592016727
50.4161592252024
50.4161592734124
50.4161593747134
50.4161595951478
50.4161600894835
50.4161612094915
50.4161637048572
3501.12284585741
31510.1123162397
31510.0964383586
3501.12156194163
50.4161485764772
50.4161476430778
50.4161472131162
50.4161470205281
50.4161469347603
50.4161468959728
50.4161468779372
50.4161468693218
50.4161468651412
50.4161468631126
50.416146862143
50.4161468616929
50.4161468614929
50.4161468614097
50.4161468613794
50.4161468613718
50.4161468613723
50.4161468613747
50.416146861377
50.4161468613788
50.41614686138
50.4161468613805
50.4161468613804
50.4161468613797
50.4161468613783
50.4161468613761
50.416146861373
50.416146861369
50.4161468613644
50.4161468613602
50.4161468613589
50.4161468613672
50.416146861399
50.4161468614851
50.416146861691
50.4161468621528
50.416146863144
50.4161468652053
50.4161468694075
50.4161468779302
50.4161468954366
50.41614693251
50.4161470142361
50.416147200574
50.416147630636
50.4161486076319
3501.12157736974
31510.0969271487
31510.0911860485
3501.12113971698
50.4161436745299
50.416143320057
50.41614315903
50.4161430879279
50.4161430567255
50.416143042813
50.416143036419
50.4161430333875
50.4161430319215
50.4161430312103
50.4161430308699
50.4161430307117
50.4161430306414
50.4161430306121
50.4161430306014
50.4161430305986
50.4161430305984
50.4161430305989
50.4161430305992
50.4161430305993
50.416143030599
50.4161430305985
50.4161430305977
50.4161430305967
50.4161430305954
50.4161430305937
50.4161430305917
50.4161430305893
50.4161430305867
50.4161430305842
50.4161430305826
50.4161430305845
50.4161430305947
50.4161430306243
50.4161430306968
50.4161430308605
50.4161430312121
50.4161430319412
50.4161430334232
50.4161430364248
50.4161430426043
50.4161430557873
50.416143085212
50.4161431533803
50.4161433135344
50.4161436841865
3501.1211457181
31510.0913865829
31510.0896659305
3501.12103501414
50.4161426288043
50.4161424980483
50.4161424394105
50.4161424138656
50.4161424028127
50.4161423979532
50.4161423957467
50.4161423947096
50.4161423942104
50.4161423939688
50.4161423938534
50.4161423937999
50.4161423937762
50.4161423937663
50.4161423937626
50.4161423937613
50.4161423937609
50.4161423937605
50.4161423937601
50.4161423937595
50.4161423937586
50.4161423937577
50.4161423937567
50.4161423937555
50.4161423937542
50.4161423937528
50.4161423937512
50.4161423937495
50.4161423937477
50.4161423937458
50.4161423937442
50.4161423937437
50.416142393746
50.4161423937549
50.4161423937787
50.4161423938338
50.4161423939537
50.4161423942032
50.4161423947105
50.4161423957381
50.4161423978599
50.4161424024205
50.4161424127248
50.4161424369697
50.4161424949162
50.416142631426
3501.12103726406
31510.089745333
31510.0895685662
3501.12104888321
50.4161430039632
50.4161429570405
50.4161429362483
50.4161429273059
50.4161429234901
50.4161429218367
50.4161429210963
50.4161429207524
50.4161429205884
50.4161429205098
50.4161429204726
50.4161429204557
50.4161429204482
50.4161429204451
50.4161429204438
50.4161429204432
50.4161429204426
50.4161429204419
50.4161429204411
50.4161429204402
50.4161429204392
50.4161429204381
50.416142920437
50.4161429204358
50.4161429204345
50.4161429204332
50.4161429204318
50.4161429204303
50.4161429204288
50.4161429204271
50.4161429204256
50.4161429204242
50.4161429204238
50.4161429204253
50.4161429204316
50.4161429204483
50.4161429204865
50.4161429205677
50.4161429207347
50.4161429210751
50.4161429217826
50.4161429233172
50.4161429268299
50.4161429352237
50.4161429556242
50.4161430045092
3501.12104969726
31510.0895989732
31510.0899973704
3501.12110572501
50.4161438871346
50.416143870734
50.4161438635482
50.4161438604965
50.4161438592132
50.4161438586666
50.4161438584265
50.4161438583174
50.4161438582666
50.4161438582431
50.4161438582323
50.4161438582278
50.4161438582258
50.416143858225
50.4161438582246
50.4161438582241
50.4161438582234
50.4161438582227
50.4161438582218
50.4161438582208
50.4161438582197
50.4161438582186
50.4161438582174
50.4161438582162
50.416143858215
50.4161438582137
50.4161438582124
50.416143858211
50.4161438582095
50.4161438582081
50.4161438582065
50.4161438582049
50.4161438582034
50.4161438582024
50.4161438582027
50.4161438582061
50.4161438582162
50.4161438582399
50.4161438582912
50.4161438583984
50.4161438586255
50.416143859126
50.4161438602905
50.4161438631204
50.4161438701155
50.4161438871579
3501.12110600913
31510.0900086522
31510.0906152972
3501.12117770948
50.4161449468689
50.4161449412832
50.4161449388631
50.4161449378492
50.4161449374304
50.4161449372566
50.416144937183
50.4161449371513
50.4161449371377
50.4161449371321
50.4161449371301
50.4161449371295
50.4161449371294
50.4161449371293
50.4161449371291
50.4161449371286
50.4161449371281
50.4161449371272
50.4161449371263
50.4161449371253
50.4161449371242
50.4161449371231
50.4161449371219
50.4161449371207
50.4161449371195
50.4161449371182
50.4161449371169
50.4161449371156
50.4161449371142
50.4161449371128
50.4161449371112
50.4161449371096
50.4161449371078
50.4161449371059
50.4161449371043
50.4161449371033
50.4161449371041
50.4161449371088
50.4161449371217
50.4161449371519
50.4161449372199
50.416144937376
50.4161449377495
50.416144938677
50.4161449410126
50.4161449467994
3501.12117780451
31510.0906193524
31510.0912994006
3501.12125489072
50.4161460663555
50.4161460645046
50.4161460637128
50.4161460633868
50.416146063256
50.4161460632045
50.4161460631847
50.4161460631777
50.4161460631757
50.4161460631758
50.4161460631764
50.416146063177
50.4161460631774
50.4161460631775
50.4161460631774
50.4161460631769
50.4161460631763
50.4161460631755
50.4161460631746
50.4161460631735
50.4161460631725
50.4161460631713
50.4161460631702
50.416146063169
50.4161460631677
50.4161460631665
50.4161460631653
50.416146063164
50.4161460631626
50.4161460631612
50.4161460631597
50.416146063158
50.4161460631562
50.4161460631541
50.4161460631519
50.4161460631496
50.4161460631475
50.4161460631461
50.4161460631469
50.4161460631525
50.4161460631695
50.4161460632139
50.4161460633277
50.416146063621
50.416146064378
50.4161460662892
3501.12125492046
31510.0913008092
31510.092006081
3501.12133381152
50.4161472055616
50.4161472049692
50.4161472047203
50.4161472046209
50.4161472045834
50.4161472045708
50.4161472045677
50.416147204568
50.4161472045695
50.4161472045711
50.4161472045723
50.4161472045732
50.4161472045737
50.4161472045738
50.4161472045736
50.4161472045731
50.4161472045725
50.4161472045717
50.4161472045708
50.4161472045697
50.4161472045687
50.4161472045675
50.4161472045664
50.4161472045652
50.416147204564
50.4161472045628
50.4161472045616
50.4161472045603
50.416147204559
50.4161472045576
50.4161472045561
50.4161472045545
50.4161472045527
50.4161472045507
50.4161472045484
50.4161472045458
50.4161472045429
50.4161472045399
50.4161472045371
50.4161472045354
50.4161472045368
50.4161472045463
50.4161472045772
50.4161472046645
50.4161472048998
50.4161472055095
3501.12133381941
31510.0920065488
31510.0927202816
3501.12141330108
50.4161483511228
50.4161483509444
50.4161483508721
50.4161483508452
50.4161483508369
50.4161483508359
50.4161483508375
50.4161483508397
50.4161483508418
50.4161483508436
50.4161483508449
50.4161483508457
50.4161483508461
50.4161483508461
50.4161483508459
50.4161483508454
50.4161483508447
50.4161483508439
50.416148350843
50.416148350842
50.4161483508409
50.4161483508398
50.4161483508386
50.4161483508375
50.4161483508363
50.4161483508351
50.4161483508339
50.4161483508327
50.4161483508314
50.4161483508301
50.4161483508286
50.4161483508271
50.4161483508254
50.4161483508234
50.4161483508213
50.4161483508187
50.4161483508158
50.4161483508126
50.416148350809
50.4161483508055
50.4161483508025
50.4161483508017
50.4161483508073
50.4161483508298
50.4161483508971
50.4161483510803
3501.12141330188
31510.0927204211
31510.0934369308
3501.12149297249
50.4161494986866
50.416149498641
50.4161494986245
50.4161494986197
50.4161494986199
50.4161494986219
50.4161494986244
50.4161494986267
50.4161494986287
50.4161494986302
50.4161494986313
50.416149498632
50.4161494986323
50.4161494986322
50.4161494986318
50.4161494986313
50.4161494986306
50.4161494986297
50.4161494986288
50.4161494986278
50.4161494986268
50.4161494986256
50.4161494986245
50.4161494986234
50.4161494986222
50.4161494986211
50.4161494986199
50.4161494986187
50.4161494986175
50.4161494986162
50.4161494986148
50.4161494986133
50.4161494986118
50.4161494986099
50.4161494986079
50.4161494986055
50.4161494986028
50.4161494985998
50.4161494985964
50.4161494985928
50.4161494985891
50.4161494985858
50.4161494985843
50.4161494985873
50.4161494986022
50.4161494986491
3501.12149297103
31510.0934369614
31510.0941543603
3501.12157270082
50.4161506468681
50.4161506468637
50.416150646864
50.4161506468654
50.4161506468675
50.4161506468698
50.4161506468721
50.416150646874
50.4161506468756
50.4161506468768
50.4161506468775
50.416150646878
50.4161506468781
50.4161506468779
50.4161506468775
50.4161506468769
50.4161506468761
50.4161506468753
50.4161506468743
50.4161506468733
50.4161506468723
50.4161506468711
50.4161506468701
50.4161506468689
50.4161506468678
50.4161506468666
50.4161506468655
50.4161506468643
50.4161506468632
50.416150646862
50.4161506468607
50.4161506468593
50.4161506468578
50.4161506468561
50.4161506468543
50.4161506468522
50.4161506468498
50.4161506468471
50.4161506468441
50.4161506468409
50.4161506468375
50.4161506468342
50.4161506468312
50.4161506468289
50.4161506468282
50.4161506468331
3501.12157269875
31510.0941543549
31510.0948720334
3501.12165244662
50.4161517952362
50.416151795244
50.4161517952487
50.4161517952514
50.4161517952534
50.4161517952552
50.4161517952568
50.4161517952582
50.4161517952593
50.4161517952601
50.4161517952606
50.4161517952608
50.4161517952607
50.4161517952604
50.4161517952599
50.4161517952592
50.4161517952584
50.4161517952575
50.4161517952565
50.4161517952555
50.4161517952545
50.4161517952534
50.4161517952523
50.4161517952512
50.4161517952501
50.416151795249
50.4161517952479
50.4161517952467
50.4161517952456
50.4161517952444
50.4161517952432
50.416151795242
50.4161517952406
50.4161517952391
50.4161517952375
50.4161517952356
50.4161517952336
50.4161517952313
50.4161517952288
50.4161517952261
50.4161517952234
50.4161517952206
50.4161517952179
50.4161517952148
50.4161517952101
50.4161517952025
3501.12165244438
31510.0948720177
31510.095589781
3501.12173219768
50.4161529436597
50.4161529436705
50.4161529436759
50.4161529436782
50.4161529436796
50.4161529436807
50.4161529436816
50.4161529436824
50.4161529436831
50.4161529436834
50.4161529436836
50.4161529436835
50.4161529436833
50.4161529436828
50.4161529436822
50.4161529436814
50.4161529436806
50.4161529436797
50.4161529436787
50.4161529436777
50.4161529436766
50.4161529436755
50.4161529436744
50.4161529436733
50.4161529436723
50.4161529436712
50.4161529436701
50.416152943669
50.4161529436679
50.4161529436669
50.4161529436657
50.4161529436646
50.4161529436633
50.416152943662
50.4161529436606
50.416152943659
50.4161529436573
50.4161529436555
50.4161529436535
50.4161529436515
50.4161529436494
50.4161529436474
50.4161529436453
50.4161529436427
50.4161529436374
50.4161529436269
3501.12173219545
31510.095589762
31510.0963075511
3501.12181195028
50.4161540920992
50.4161540921103
50.4161540921152
50.4161540921168
50.4161540921174
50.4161540921176
50.4161540921179
50.4161540921181
50.4161540921183
50.4161540921183
50.4161540921181
50.4161540921178
50.4161540921173
50.4161540921168
50.416154092116
50.4161540921152
50.4161540921143
50.4161540921133
50.4161540921123
50.4161540921113
50.4161540921102
50.4161540921091
50.416154092108
50.416154092107
50.4161540921059
50.4161540921049
50.4161540921038
50.4161540921028
50.4161540921018
50.4161540921008
50.4161540920997
50.4161540920987
50.4161540920976
50.4161540920965
50.4161540920952
50.4161540920939
50.4161540920926
50.4161540920912
50.4161540920897
50.4161540920883
50.4161540920869
50.4161540920857
50.4161540920845
50.4161540920826
50.4161540920779
50.4161540920671
3501.12181194804
31510.0963075313
31510.0970253278
3501.12189170334
50.4161552405434
50.4161552405538
50.4161552405579
50.4161552405586
50.4161552405583
50.4161552405578
50.4161552405575
50.4161552405571
50.4161552405568
50.4161552405564
50.4161552405559
50.4161552405554
50.4161552405547
50.416155240554
50.4161552405531
50.4161552405522
50.4161552405512
50.4161552405502
50.4161552405492
50.4161552405481
50.416155240547
50.416155240546
50.4161552405449
50.4161552405439
50.4161552405428
50.4161552405418
50.4161552405408
50.4161552405399
50.4161552405389
50.416155240538
50.416155240537
50.4161552405361
50.4161552405351
50.4161552405342
50.4161552405332
50.4161552405322
50.4161552405312
50.4161552405302
50.4161552405292
50.4161552405283
50.4161552405276
50.4161552405272
50.4161552405268
50.4161552405259
50.416155240522
50.4161552405118
3501.12189170109
31510.0970253058
31510.0977431066
3501.12197145654
50.4161563889888
50.4161563889983
50.4161563890015
50.4161563890013
50.4161563890002
50.416156388999
50.416156388998
50.4161563889971
50.4161563889963
50.4161563889955
50.4161563889947
50.416156388994
50.4161563889931
50.4161563889922
50.4161563889912
50.4161563889902
50.4161563889892
50.4161563889881
50.416156388987
50.416156388986
50.4161563889849
50.4161563889838
50.4161563889828
50.4161563889817
50.4161563889807
50.4161563889797
50.4161563889788
50.4161563889779
50.416156388977
50.4161563889761
50.4161563889753
50.4161563889745
50.4161563889737
50.4161563889729
50.4161563889721
50.4161563889714
50.4161563889707
50.4161563889701
50.4161563889696
50.4161563889693
50.4161563889693
50.4161563889696
50.4161563889701
50.41615638897
50.4161563889671
50.4161563889578
3501.12197145436
31510.0977430858
31510.098460886
3501.12205120978
50.4161575374347
50.4161575374431
50.4161575374453
50.4161575374442
50.4161575374423
50.4161575374404
50.4161575374388
50.4161575374373
50.4161575374361
50.4161575374349
50.4161575374339
50.4161575374328
50.4161575374318
50.4161575374307
50.4161575374297
50.4161575374285
50.4161575374274
50.4161575374263
50.4161575374252
50.4161575374241
50.416157537423
50.416157537422
50.416157537421
50.4161575374199
50.416157537419
50.416157537418
50.4161575374171
50.4161575374162
50.4161575374154
50.4161575374146
50.4161575374139
50.4161575374132
50.4161575374125
50.4161575374119
50.4161575374114
50.4161575374109
50.4161575374106
50.4161575374103
50.4161575374104
50.4161575374106
50.4161575374112
50.4161575374123
50.4161575374135
50.4161575374144
50.4161575374124
50.4161575374042
3501.12205120767
31510.0984608666
31510.0991786657
3501.12213096304
50.4161586858806
50.4161586858879
50.4161586858891
50.4161586858871
50.4161586858844
50.4161586858819
50.4161586858796
50.4161586858777
50.416158685876
50.4161586858745
50.4161586858732
50.4161586858719
50.4161586858706
50.4161586858694
50.4161586858682
50.416158685867
50.4161586858659
50.4161586858647
50.4161586858636
50.4161586858625
50.4161586858614
50.4161586858603
50.4161586858593
50.4161586858583
50.4161586858573
50.4161586858564
50.4161586858556
50.4161586858547
50.416158685854
50.4161586858533
50.4161586858526
50.4161586858521
50.4161586858516