/*--------------------------------*- C++ -*----------------------------------*\
  =========                 |
  \\      /  F ield         | OpenFOAM: The Open Source CFD Toolbox
   \\    /   O peration     | Website:  https://openfoam.org
    \\  /    A nd           | Version:  10
     \\/     M anipulation  |
\*---------------------------------------------------------------------------*/
FoamFile
{
    format      ascii;
    class       volScalarField;
    location    "7.6";
    object      p;
}
// * * * * * * * * * * * * * * * * * * * * * * * * * * * * * * * * * * * * * //

dimensions      [1 -1 -2 0 0 0 0];

internalField   nonuniform List<scalar> 
2500
(
100098.926765397
100098.926766184
100098.926767095
100098.926767924
100098.92676852
100098.926768937
100098.92676921
100098.926769391
100098.926769507
100098.926769583
100098.926769631
100098.926769662
100098.926769682
100098.926769695
100098.926769704
100098.92676971
100098.926769714
100098.926769716
100098.926769718
100098.926769719
100098.92676972
100098.926769721
100098.926769721
100098.926769721
100098.926769722
100098.926769722
100098.926769722
100098.926769722
100098.926769722
100098.926769721
100098.926769721
100098.92676972
100098.926769718
100098.926769715
100098.926769711
100098.926769705
100098.926769697
100098.926769683
100098.926769662
100098.926769631
100098.926769582
100098.926769506
100098.926769388
100098.926769207
100098.926768932
100098.926768514
100098.926767913
100098.926767076
100098.926766152
100098.926765366
100098.924515643
100098.924516241
100098.924516983
100098.924517697
100098.924518224
100098.924518604
100098.924518858
100098.924519027
100098.924519138
100098.92451921
100098.924519256
100098.924519287
100098.924519306
100098.924519319
100098.924519328
100098.924519334
100098.924519338
100098.924519341
100098.924519343
100098.924519344
100098.924519345
100098.924519346
100098.924519346
100098.924519346
100098.924519347
100098.924519347
100098.924519347
100098.924519347
100098.924519347
100098.924519346
100098.924519346
100098.924519344
100098.924519343
100098.92451934
100098.924519336
100098.92451933
100098.924519321
100098.924519308
100098.924519287
100098.924519257
100098.924519209
100098.924519136
100098.924519025
100098.924518855
100098.924518599
100098.924518217
100098.924517686
100098.924516964
100098.924516211
100098.924515615
100098.922259095
100098.922259534
100098.922260025
100098.922260547
100098.922260943
100098.922261241
100098.922261445
100098.922261584
100098.922261677
100098.922261739
100098.92226178
100098.922261807
100098.922261825
100098.922261838
100098.922261846
100098.922261852
100098.922261856
100098.922261858
100098.92226186
100098.922261862
100098.922261863
100098.922261863
100098.922261864
100098.922261864
100098.922261864
100098.922261865
100098.922261865
100098.922261865
100098.922261864
100098.922261864
100098.922261863
100098.922261862
100098.92226186
100098.922261858
100098.922261854
100098.922261848
100098.922261839
100098.922261827
100098.922261808
100098.922261781
100098.922261739
100098.922261676
100098.922261583
100098.922261442
100098.922261237
100098.922260937
100098.922260536
100098.922260007
100098.922259506
100098.922259064
100098.919996318
100098.919996573
100098.919996815
100098.919997121
100098.91999736
100098.919997551
100098.919997688
100098.919997787
100098.919997855
100098.919997902
100098.919997935
100098.919997957
100098.919997973
100098.919997984
100098.919997992
100098.919997997
100098.919998001
100098.919998003
100098.919998005
100098.919998007
100098.919998008
100098.919998008
100098.919998009
100098.919998009
100098.919998009
100098.91999801
100098.91999801
100098.91999801
100098.91999801
100098.919998009
100098.919998008
100098.919998007
100098.919998006
100098.919998003
100098.919997999
100098.919997994
100098.919997986
100098.919997975
100098.919997959
100098.919997936
100098.919997903
100098.919997855
100098.919997786
100098.919997686
100098.919997548
100098.919997353
100098.91999711
100098.919996799
100098.919996549
100098.919996288
100098.917728183
100098.917728263
100098.917728305
100098.917728421
100098.91772852
100098.917728615
100098.917728689
100098.917728748
100098.917728791
100098.917728824
100098.917728848
100098.917728866
100098.917728879
100098.917728888
100098.917728894
100098.917728899
100098.917728903
100098.917728905
100098.917728907
100098.917728908
100098.917728909
100098.91772891
100098.91772891
100098.917728911
100098.917728911
100098.917728911
100098.917728911
100098.917728911
100098.917728911
100098.917728911
100098.91772891
100098.917728909
100098.917728908
100098.917728905
100098.917728902
100098.917728897
100098.91772889
100098.917728881
100098.917728868
100098.91772885
100098.917728825
100098.917728792
100098.917728747
100098.917728688
100098.917728612
100098.917728515
100098.917728413
100098.917728293
100098.917728245
100098.917728157
100098.915455792
100098.915455735
100098.915455642
100098.915455614
100098.915455607
100098.915455624
100098.915455647
100098.915455672
100098.915455695
100098.915455715
100098.915455731
100098.915455744
100098.915455754
100098.915455761
100098.915455767
100098.915455771
100098.915455774
100098.915455776
100098.915455778
100098.915455779
100098.91545578
100098.91545578
100098.915455781
100098.915455781
100098.915455782
100098.915455782
100098.915455782
100098.915455782
100098.915455782
100098.915455781
100098.915455781
100098.91545578
100098.915455779
100098.915455776
100098.915455774
100098.915455769
100098.915455764
100098.915455756
100098.915455746
100098.915455733
100098.915455717
100098.915455697
100098.915455673
100098.915455647
100098.915455623
100098.915455603
100098.915455609
100098.915455634
100098.915455725
100098.915455775
100098.913180318
100098.913180176
100098.91318001
100098.913179891
100098.913179813
100098.913179776
100098.913179762
100098.913179762
100098.913179769
100098.913179777
100098.913179787
100098.913179795
100098.913179802
100098.913179807
100098.913179812
100098.913179815
100098.913179818
100098.91317982
100098.913179821
100098.913179822
100098.913179823
100098.913179823
100098.913179824
100098.913179824
100098.913179825
100098.913179825
100098.913179825
100098.913179825
100098.913179825
100098.913179825
100098.913179824
100098.913179823
100098.913179822
100098.91317982
100098.913179818
100098.913179815
100098.91317981
100098.913179805
100098.913179797
100098.913179789
100098.91317978
100098.91317977
100098.913179763
100098.913179763
100098.913179776
100098.913179811
100098.913179888
100098.913180007
100098.913180173
100098.913180311
100098.910902787
100098.910902609
100098.910902418
100098.910902253
100098.910902137
100098.910902067
100098.910902028
100098.910902011
100098.910902004
100098.910902005
100098.910902008
100098.910902012
100098.910902016
100098.91090202
100098.910902023
100098.910902026
100098.910902028
100098.91090203
100098.910902031
100098.910902032
100098.910902032
100098.910902033
100098.910902033
100098.910902034
100098.910902034
100098.910902034
100098.910902034
100098.910902034
100098.910902034
100098.910902034
100098.910902034
100098.910902033
100098.910902032
100098.910902031
100098.910902029
100098.910902027
100098.910902023
100098.91090202
100098.910902015
100098.910902011
100098.910902007
100098.910902007
100098.910902012
100098.91090203
100098.910902068
100098.910902137
100098.910902253
100098.910902419
100098.910902612
100098.910902788
100098.908623984
100098.908623807
100098.908623621
100098.908623443
100098.908623312
100098.908623226
100098.908623173
100098.908623143
100098.908623128
100098.908623122
100098.90862312
100098.908623121
100098.908623122
100098.908623125
100098.908623127
100098.908623128
100098.90862313
100098.908623131
100098.908623132
100098.908623132
100098.908623133
100098.908623133
100098.908623134
100098.908623134
100098.908623134
100098.908623135
100098.908623135
100098.908623135
100098.908623135
100098.908623135
100098.908623135
100098.908623134
100098.908623134
100098.908623133
100098.908623131
100098.90862313
100098.908623128
100098.908623126
100098.908623124
100098.908623123
100098.908623124
100098.908623131
100098.908623146
100098.908623175
100098.908623228
100098.908623314
100098.908623445
100098.908623625
100098.908623814
100098.908623991
100098.906344453
100098.906344297
100098.906344133
100098.906343961
100098.906343831
100098.906343739
100098.906343679
100098.906343642
100098.90634362
100098.906343608
100098.906343603
100098.906343601
100098.9063436
100098.906343601
100098.906343601
100098.906343602
100098.906343603
100098.906343604
100098.906343605
100098.906343605
100098.906343605
100098.906343606
100098.906343606
100098.906343606
100098.906343607
100098.906343607
100098.906343607
100098.906343607
100098.906343607
100098.906343607
100098.906343607
100098.906343607
100098.906343607
100098.906343606
100098.906343606
100098.906343605
100098.906343604
100098.906343604
100098.906343604
100098.906343606
100098.906343612
100098.906343623
100098.906343645
100098.906343681
100098.906343742
100098.906343834
100098.906343965
100098.906344138
100098.906344306
100098.906344463
100098.904064534
100098.904064407
100098.90406427
100098.904064116
100098.904063994
100098.904063903
100098.904063841
100098.9040638
100098.904063774
100098.904063758
100098.90406375
100098.904063745
100098.904063742
100098.904063741
100098.904063741
100098.904063741
100098.904063741
100098.904063742
100098.904063742
100098.904063742
100098.904063743
100098.904063743
100098.904063743
100098.904063743
100098.904063743
100098.904063744
100098.904063744
100098.904063744
100098.904063744
100098.904063745
100098.904063745
100098.904063745
100098.904063745
100098.904063745
100098.904063745
100098.904063745
100098.904063745
100098.904063746
100098.904063748
100098.904063753
100098.904063762
100098.904063777
100098.904063803
100098.904063844
100098.904063906
100098.904063998
100098.904064121
100098.904064277
100098.904064417
100098.904064546
100098.901784426
100098.901784328
100098.901784216
100098.901784083
100098.901783974
100098.901783888
100098.901783827
100098.901783784
100098.901783756
100098.901783737
100098.901783726
100098.901783719
100098.901783715
100098.901783713
100098.901783711
100098.901783711
100098.90178371
100098.90178371
100098.90178371
100098.90178371
100098.90178371
100098.901783711
100098.901783711
100098.901783711
100098.901783711
100098.901783711
100098.901783712
100098.901783712
100098.901783712
100098.901783712
100098.901783713
100098.901783713
100098.901783713
100098.901783714
100098.901783714
100098.901783715
100098.901783717
100098.901783719
100098.901783723
100098.90178373
100098.901783741
100098.90178376
100098.901783788
100098.90178383
100098.901783892
100098.901783979
100098.901784089
100098.901784224
100098.901784338
100098.901784437
100098.899504234
100098.899504161
100098.899504071
100098.89950396
100098.899503864
100098.899503785
100098.899503726
100098.899503683
100098.899503654
100098.899503634
100098.899503621
100098.899503612
100098.899503606
100098.899503603
100098.899503601
100098.899503599
100098.899503598
100098.899503598
100098.899503598
100098.899503597
100098.899503597
100098.899503597
100098.899503598
100098.899503598
100098.899503598
100098.899503598
100098.899503598
100098.899503599
100098.899503599
100098.8995036
100098.8995036
100098.8995036
100098.899503601
100098.899503602
100098.899503603
100098.899503604
100098.899503607
100098.89950361
100098.899503616
100098.899503625
100098.899503638
100098.899503658
100098.899503688
100098.899503731
100098.89950379
100098.899503869
100098.899503966
100098.899504079
100098.89950417
100098.899504245
100098.897224011
100098.897223957
100098.897223887
100098.897223794
100098.897223711
100098.89722364
100098.897223584
100098.897223543
100098.897223513
100098.897223492
100098.897223477
100098.897223467
100098.897223461
100098.897223456
100098.897223453
100098.897223451
100098.89722345
100098.897223449
100098.897223448
100098.897223448
100098.897223448
100098.897223448
100098.897223448
100098.897223448
100098.897223448
100098.897223448
100098.897223449
100098.897223449
100098.897223449
100098.89722345
100098.89722345
100098.897223451
100098.897223452
100098.897223453
100098.897223455
100098.897223457
100098.89722346
100098.897223465
100098.897223472
100098.897223482
100098.897223496
100098.897223518
100098.897223548
100098.897223589
100098.897223645
100098.897223717
100098.8972238
100098.897223895
100098.897223967
100098.897224022
100098.894943781
100098.894943742
100098.894943686
100098.894943609
100098.894943538
100098.894943474
100098.894943424
100098.894943384
100098.894943354
100098.894943333
100098.894943317
100098.894943306
100098.894943299
100098.894943293
100098.89494329
100098.894943287
100098.894943285
100098.894943284
100098.894943283
100098.894943283
100098.894943282
100098.894943282
100098.894943282
100098.894943282
100098.894943282
100098.894943283
100098.894943283
100098.894943283
100098.894943284
100098.894943284
100098.894943285
100098.894943286
100098.894943287
100098.894943289
100098.894943291
100098.894943294
100098.894943298
100098.894943303
100098.894943311
100098.894943322
100098.894943337
100098.894943359
100098.894943389
100098.894943429
100098.89494348
100098.894943544
100098.894943616
100098.894943694
100098.894943751
100098.894943791
100098.892663554
100098.892663525
100098.89266348
100098.892663417
100098.892663356
100098.8926633
100098.892663253
100098.892663216
100098.892663187
100098.892663166
100098.89266315
100098.892663138
100098.89266313
100098.892663124
100098.89266312
100098.892663117
100098.892663114
100098.892663113
100098.892663112
100098.892663111
100098.892663111
100098.89266311
100098.89266311
100098.89266311
100098.892663111
100098.892663111
100098.892663111
100098.892663112
100098.892663112
100098.892663113
100098.892663114
100098.892663115
100098.892663116
100098.892663118
100098.89266312
100098.892663124
100098.892663128
100098.892663134
100098.892663143
100098.892663154
100098.89266317
100098.892663192
100098.892663221
100098.892663259
100098.892663306
100098.892663362
100098.892663424
100098.892663488
100098.892663533
100098.892663563
100098.890383331
100098.89038331
100098.890383274
100098.890383222
100098.89038317
100098.890383121
100098.890383078
100098.890383044
100098.890383016
100098.890382995
100098.890382979
100098.890382967
100098.890382958
100098.890382952
100098.890382947
100098.890382944
100098.890382941
100098.89038294
100098.890382938
100098.890382937
100098.890382937
100098.890382937
100098.890382936
100098.890382936
100098.890382937
100098.890382937
100098.890382937
100098.890382938
100098.890382938
100098.890382939
100098.89038294
100098.890382941
100098.890382943
100098.890382945
100098.890382948
100098.890382951
100098.890382956
100098.890382963
100098.890382972
100098.890382984
100098.890383
100098.890383021
100098.890383049
100098.890383084
100098.890383127
100098.890383177
100098.890383229
100098.890383282
100098.890383318
100098.89038334
100098.888103115
100098.888103098
100098.888103069
100098.888103027
100098.888102982
100098.888102939
100098.888102901
100098.888102869
100098.888102843
100098.888102822
100098.888102807
100098.888102795
100098.888102786
100098.888102779
100098.888102774
100098.88810277
100098.888102768
100098.888102766
100098.888102764
100098.888102763
100098.888102763
100098.888102762
100098.888102762
100098.888102762
100098.888102762
100098.888102762
100098.888102763
100098.888102763
100098.888102764
100098.888102765
100098.888102766
100098.888102767
100098.888102769
100098.888102771
100098.888102774
100098.888102778
100098.888102783
100098.88810279
100098.8881028
100098.888102812
100098.888102828
100098.888102848
100098.888102874
100098.888102907
100098.888102945
100098.888102989
100098.888103034
100098.888103077
100098.888103107
100098.888103123
100098.885822903
100098.885822891
100098.885822867
100098.885822832
100098.885822794
100098.885822756
100098.885822722
100098.885822693
100098.885822669
100098.885822649
100098.885822634
100098.885822622
100098.885822613
100098.885822606
100098.885822601
100098.885822597
100098.885822594
100098.885822592
100098.88582259
100098.885822589
100098.885822588
100098.885822588
100098.885822587
100098.885822587
100098.885822587
100098.885822588
100098.885822588
100098.885822589
100098.885822589
100098.88582259
100098.885822591
100098.885822593
100098.885822595
100098.885822597
100098.885822601
100098.885822605
100098.88582261
100098.885822617
100098.885822627
100098.885822639
100098.885822654
100098.885822674
100098.885822698
100098.885822728
100098.885822762
100098.885822801
100098.885822839
100098.885822875
100098.885822899
100098.885822911
100098.883542696
100098.883542686
100098.883542667
100098.883542638
100098.883542606
100098.883542573
100098.883542542
100098.883542516
100098.883542493
100098.883542475
100098.88354246
100098.883542448
100098.883542439
100098.883542432
100098.883542427
100098.883542423
100098.88354242
100098.883542418
100098.883542416
100098.883542415
100098.883542414
100098.883542414
100098.883542413
100098.883542413
100098.883542413
100098.883542413
100098.883542414
100098.883542414
100098.883542415
100098.883542416
100098.883542417
100098.883542419
100098.883542421
100098.883542424
100098.883542427
100098.883542431
100098.883542437
100098.883542444
100098.883542453
100098.883542465
100098.88354248
100098.883542499
100098.883542521
100098.883542548
100098.883542579
100098.883542612
100098.883542645
100098.883542675
100098.883542694
100098.883542703
100098.881262492
100098.881262485
100098.881262469
100098.881262445
100098.881262417
100098.881262389
100098.881262362
100098.881262338
100098.881262317
100098.8812623
100098.881262286
100098.881262275
100098.881262266
100098.881262259
100098.881262254
100098.881262249
100098.881262246
100098.881262244
100098.881262242
100098.881262241
100098.88126224
100098.88126224
100098.881262239
100098.881262239
100098.881262239
100098.88126224
100098.88126224
100098.881262241
100098.881262241
100098.881262242
100098.881262244
100098.881262245
100098.881262247
100098.88126225
100098.881262253
100098.881262258
100098.881262263
100098.881262271
100098.88126228
100098.881262291
100098.881262305
100098.881262323
100098.881262344
100098.881262368
100098.881262395
100098.881262424
100098.881262452
100098.881262476
100098.881262492
100098.881262499
100098.878982291
100098.878982285
100098.878982273
100098.878982252
100098.878982229
100098.878982205
100098.878982181
100098.878982159
100098.878982141
100098.878982125
100098.878982111
100098.878982101
100098.878982092
100098.878982085
100098.87898208
100098.878982076
100098.878982073
100098.878982071
100098.878982069
100098.878982068
100098.878982067
100098.878982066
100098.878982066
100098.878982066
100098.878982066
100098.878982066
100098.878982066
100098.878982067
100098.878982068
100098.878982069
100098.87898207
100098.878982072
100098.878982074
100098.878982077
100098.87898208
100098.878982084
100098.87898209
100098.878982097
100098.878982106
100098.878982117
100098.87898213
100098.878982146
100098.878982165
100098.878982187
100098.878982211
100098.878982236
100098.878982259
100098.87898228
100098.878982293
100098.878982298
100098.876702093
100098.876702088
100098.876702078
100098.876702061
100098.876702042
100098.87670202
100098.876702
100098.876701981
100098.876701963
100098.876701949
100098.876701937
100098.876701926
100098.876701918
100098.876701912
100098.876701907
100098.876701903
100098.8767019
100098.876701897
100098.876701895
100098.876701894
100098.876701893
100098.876701893
100098.876701892
100098.876701892
100098.876701892
100098.876701892
100098.876701893
100098.876701893
100098.876701894
100098.876701895
100098.876701897
100098.876701898
100098.876701901
100098.876701903
100098.876701907
100098.876701911
100098.876701916
100098.876701923
100098.876701931
100098.876701942
100098.876701954
100098.876701969
100098.876701986
100098.876702006
100098.876702027
100098.876702048
100098.876702068
100098.876702085
100098.876702096
100098.8767021
100098.874421896
100098.874421893
100098.874421885
100098.874421871
100098.874421855
100098.874421836
100098.874421818
100098.874421801
100098.874421786
100098.874421773
100098.874421761
100098.874421752
100098.874421744
100098.874421738
100098.874421733
100098.874421729
100098.874421726
100098.874421724
100098.874421722
100098.874421721
100098.87442172
100098.874421719
100098.874421719
100098.874421719
100098.874421719
100098.874421719
100098.87442172
100098.87442172
100098.874421721
100098.874421722
100098.874421723
100098.874421725
100098.874421727
100098.87442173
100098.874421733
100098.874421737
100098.874421743
100098.874421749
100098.874421757
100098.874421767
100098.874421778
100098.874421792
100098.874421807
100098.874421825
100098.874421843
100098.874421861
100098.874421878
100098.874421892
100098.8744219
100098.874421903
100098.872141701
100098.872141699
100098.872141693
100098.872141682
100098.872141668
100098.872141652
100098.872141637
100098.872141622
100098.872141608
100098.872141596
100098.872141586
100098.872141577
100098.87214157
100098.872141564
100098.87214156
100098.872141556
100098.872141553
100098.872141551
100098.872141549
100098.872141548
100098.872141547
100098.872141546
100098.872141546
100098.872141546
100098.872141546
100098.872141546
100098.872141547
100098.872141547
100098.872141548
100098.872141549
100098.87214155
100098.872141552
100098.872141554
100098.872141557
100098.87214156
100098.872141564
100098.872141569
100098.872141575
100098.872141582
100098.872141591
100098.872141602
100098.872141614
100098.872141628
100098.872141643
100098.872141659
100098.872141674
100098.872141688
100098.8721417
100098.872141706
100098.872141708
100098.869861508
100098.869861507
100098.869861502
100098.869861493
100098.869861482
100098.869861469
100098.869861455
100098.869861442
100098.86986143
100098.86986142
100098.86986141
100098.869861403
100098.869861396
100098.869861391
100098.869861386
100098.869861383
100098.86986138
100098.869861378
100098.869861376
100098.869861375
100098.869861374
100098.869861374
100098.869861373
100098.869861373
100098.869861373
100098.869861373
100098.869861374
100098.869861374
100098.869861375
100098.869861376
100098.869861377
100098.869861379
100098.869861381
100098.869861383
100098.869861387
100098.86986139
100098.869861395
100098.869861401
100098.869861407
100098.869861416
100098.869861425
100098.869861436
100098.869861448
100098.869861461
100098.869861475
100098.869861488
100098.8698615
100098.869861509
100098.869861514
100098.869861515
100098.867581316
100098.867581315
100098.867581312
100098.867581305
100098.867581296
100098.867581285
100098.867581274
100098.867581263
100098.867581252
100098.867581243
100098.867581235
100098.867581228
100098.867581222
100098.867581217
100098.867581213
100098.867581209
100098.867581207
100098.867581205
100098.867581203
100098.867581202
100098.867581201
100098.867581201
100098.8675812
100098.8675812
100098.8675812
100098.867581201
100098.867581201
100098.867581202
100098.867581202
100098.867581203
100098.867581204
100098.867581206
100098.867581208
100098.86758121
100098.867581213
100098.867581217
100098.867581221
100098.867581226
100098.867581232
100098.86758124
100098.867581248
100098.867581258
100098.867581269
100098.86758128
100098.867581291
100098.867581302
100098.867581312
100098.867581318
100098.867581322
100098.867581323
100098.865301125
100098.865301125
100098.865301122
100098.865301117
100098.86530111
100098.865301102
100098.865301092
100098.865301083
100098.865301074
100098.865301066
100098.865301059
100098.865301052
100098.865301047
100098.865301043
100098.865301039
100098.865301036
100098.865301034
100098.865301032
100098.86530103
100098.865301029
100098.865301029
100098.865301028
100098.865301028
100098.865301028
100098.865301028
100098.865301028
100098.865301028
100098.865301029
100098.86530103
100098.86530103
100098.865301032
100098.865301033
100098.865301035
100098.865301037
100098.86530104
100098.865301043
100098.865301047
100098.865301052
100098.865301057
100098.865301064
100098.865301071
100098.86530108
100098.865301089
100098.865301098
100098.865301108
100098.865301117
100098.865301124
100098.865301129
100098.865301132
100098.865301131
100098.863020934
100098.863020935
100098.863020934
100098.863020931
100098.863020925
100098.863020919
100098.863020911
100098.863020903
100098.863020896
100098.863020889
100098.863020883
100098.863020877
100098.863020873
100098.863020869
100098.863020865
100098.863020863
100098.86302086
100098.863020859
100098.863020857
100098.863020857
100098.863020856
100098.863020855
100098.863020855
100098.863020855
100098.863020855
100098.863020855
100098.863020856
100098.863020856
100098.863020857
100098.863020858
100098.863020859
100098.86302086
100098.863020862
100098.863020864
100098.863020866
100098.863020869
100098.863020873
100098.863020877
100098.863020882
100098.863020888
100098.863020894
100098.863020901
100098.863020909
100098.863020917
100098.863020925
100098.863020932
100098.863020937
100098.863020941
100098.863020942
100098.863020941
100098.860740744
100098.860740746
100098.860740746
100098.860740744
100098.860740741
100098.860740736
100098.86074073
100098.860740724
100098.860740718
100098.860740712
100098.860740707
100098.860740702
100098.860740698
100098.860740694
100098.860740692
100098.860740689
100098.860740687
100098.860740686
100098.860740685
100098.860740684
100098.860740683
100098.860740683
100098.860740683
100098.860740683
100098.860740683
100098.860740683
100098.860740683
100098.860740684
100098.860740684
100098.860740685
100098.860740686
100098.860740687
100098.860740689
100098.860740691
100098.860740693
100098.860740695
100098.860740699
100098.860740702
100098.860740707
100098.860740711
100098.860740717
100098.860740723
100098.860740729
100098.860740736
100098.860740742
100098.860740747
100098.860740751
100098.860740753
100098.860740753
100098.860740751
100098.858460555
100098.858460558
100098.858460559
100098.858460559
100098.858460557
100098.858460553
100098.858460549
100098.858460544
100098.85846054
100098.858460535
100098.858460531
100098.858460527
100098.858460523
100098.85846052
100098.858460518
100098.858460516
100098.858460514
100098.858460513
100098.858460512
100098.858460511
100098.858460511
100098.85846051
100098.85846051
100098.85846051
100098.85846051
100098.85846051
100098.858460511
100098.858460511
100098.858460512
100098.858460512
100098.858460513
100098.858460514
100098.858460516
100098.858460517
100098.858460519
100098.858460522
100098.858460524
100098.858460527
100098.858460531
100098.858460535
100098.85846054
100098.858460545
100098.85846055
100098.858460555
100098.858460559
100098.858460563
100098.858460565
100098.858460565
100098.858460564
100098.858460562
100098.856180366
100098.85618037
100098.856180372
100098.856180373
100098.856180373
100098.856180371
100098.856180368
100098.856180365
100098.856180361
100098.856180358
100098.856180354
100098.856180351
100098.856180349
100098.856180346
100098.856180344
100098.856180342
100098.856180341
100098.85618034
100098.856180339
100098.856180339
100098.856180338
100098.856180338
100098.856180338
100098.856180338
100098.856180338
100098.856180338
100098.856180338
100098.856180339
100098.856180339
100098.85618034
100098.856180341
100098.856180342
100098.856180343
100098.856180344
100098.856180346
100098.856180348
100098.85618035
100098.856180353
100098.856180356
100098.856180359
100098.856180363
100098.856180366
100098.85618037
100098.856180374
100098.856180377
100098.856180379
100098.85618038
100098.856180378
100098.856180376
100098.856180373
100098.853900178
100098.853900182
100098.853900186
100098.853900189
100098.853900189
100098.853900189
100098.853900188
100098.853900186
100098.853900183
100098.853900181
100098.853900178
100098.853900176
100098.853900174
100098.853900172
100098.85390017
100098.853900169
100098.853900168
100098.853900167
100098.853900166
100098.853900166
100098.853900166
100098.853900165
100098.853900165
100098.853900165
100098.853900166
100098.853900166
100098.853900166
100098.853900166
100098.853900167
100098.853900167
100098.853900168
100098.853900169
100098.85390017
100098.853900171
100098.853900172
100098.853900174
100098.853900176
100098.853900178
100098.85390018
100098.853900183
100098.853900186
100098.853900188
100098.853900191
100098.853900193
100098.853900195
100098.853900195
100098.853900195
100098.853900192
100098.853900189
100098.853900185
100098.85161999
100098.851619995
100098.85162
100098.851620004
100098.851620006
100098.851620008
100098.851620008
100098.851620007
100098.851620005
100098.851620004
100098.851620002
100098.851620001
100098.851619999
100098.851619998
100098.851619997
100098.851619996
100098.851619995
100098.851619994
100098.851619994
100098.851619993
100098.851619993
100098.851619993
100098.851619993
100098.851619993
100098.851619993
100098.851619993
100098.851619994
100098.851619994
100098.851619994
100098.851619995
100098.851619995
100098.851619996
100098.851619997
100098.851619998
100098.851619999
100098.85162
100098.851620002
100098.851620003
100098.851620005
100098.851620007
100098.851620009
100098.85162001
100098.851620012
100098.851620013
100098.851620013
100098.851620012
100098.85162001
100098.851620006
100098.851620002
100098.851619996
100098.849339802
100098.849339809
100098.849339814
100098.84933982
100098.849339824
100098.849339826
100098.849339828
100098.849339828
100098.849339828
100098.849339827
100098.849339826
100098.849339825
100098.849339825
100098.849339824
100098.849339823
100098.849339822
100098.849339822
100098.849339821
100098.849339821
100098.849339821
100098.849339821
100098.849339821
100098.849339821
100098.849339821
100098.849339821
100098.849339821
100098.849339821
100098.849339822
100098.849339822
100098.849339822
100098.849339823
100098.849339823
100098.849339824
100098.849339825
100098.849339825
100098.849339826