/*--------------------------------*- C++ -*----------------------------------*\
  =========                 |
  \\      /  F ield         | OpenFOAM: The Open Source CFD Toolbox
   \\    /   O peration     | Website:  https://openfoam.org
    \\  /    A nd           | Version:  10
     \\/     M anipulation  |
\*---------------------------------------------------------------------------*/
FoamFile
{
    format      ascii;
    class       volScalarField;
    location    "7.6";
    object      p_rgh;
}
// * * * * * * * * * * * * * * * * * * * * * * * * * * * * * * * * * * * * * //

dimensions      [1 -1 -2 0 0 0 0];

internalField   nonuniform List<scalar> 
2500
(
99.0402580892842
99.0402601965179
99.0402649243479
99.0402687248861
99.0402712408977
99.0402728180925
99.0402737694676
99.0402743350132
99.0402746632462
99.0402748503984
99.0402749560162
99.0402750151989
99.0402750485518
99.0402750679059
99.0402750794747
99.0402750867215
99.0402750912472
99.0402750943322
99.0402750964859
99.0402750979556
99.0402750990033
99.0402750997746
99.0402751003421
99.040275100735
99.0402751010552
99.040275101288
99.0402751013899
99.0402751013753
99.0402751011861
99.0402751007787
99.0402751000365
99.0402750987705
99.0402750968497
99.0402750938665
99.040275089239
99.0402750819048
99.0402750699868
99.0402750500507
99.0402750154171
99.0402749546774
99.0402748472989
99.0402746579348
99.0402743285085
99.0402737635741
99.0402728145709
99.0402712415671
99.0402687219612
99.0402648967865
99.0402601338137
99.0402580950322
99.040564655661
99.0405739389244
99.0405861025502
99.0405954541784
99.0406016456836
99.0406055268977
99.0406078791711
99.0406092728663
99.0406100750406
99.0406105236907
99.040610767639
99.0406108971074
99.0406109647593
99.0406110001059
99.0406110188633
99.040611029166
99.040611035045
99.0406110386393
99.0406110409822
99.0406110425392
99.0406110436161
99.0406110444164
99.0406110449985
99.0406110454205
99.0406110457261
99.0406110459444
99.0406110460608
99.0406110460463
99.0406110458571
99.0406110454351
99.0406110446347
99.0406110433105
99.0406110411132
99.0406110375188
99.0406110314361
99.0406110206968
99.0406110010372
99.0406109641335
99.040610893906
99.0406107610324
99.0406105130824
99.0406100606051
99.0406092570629
99.0406078671076
99.0406055250642
99.0406016559427
99.0405954554444
99.0405860384344
99.0405737770634
99.0405647836305
99.0408895866567
99.040906316397
99.040923852066
99.0409367927205
99.0409452436288
99.040950495677
99.0409536610241
99.0409555269289
99.0409565959708
99.0409571906202
99.0409575113736
99.0409576796956
99.0409577661922
99.0409578102553
99.0409578328545
99.040957844787
99.0409578513354
99.0409578551626
99.0409578575782
99.0409578591643
99.0409578602557
99.0409578610415
99.0409578616382
99.0409578620456
99.0409578623658
99.040957862584
99.0409578627005
99.0409578626713
99.0409578624967
99.0409578620747
99.0409578612889
99.040957859921
99.0409578576364
99.040957853751
99.0409578469553
99.0409578344697
99.0409578107647
99.0409577648097
99.04095767533
99.0409575029917
99.0409571774944
99.0409565784794
99.0409555079677
99.0409536466905
99.0409504931449
99.040945251385
99.0409367747197
99.0409237163112
99.0409059847589
99.040889519194
99.041194681733
99.0412158925028
99.0412350227998
99.041248544163
99.0412571276538
99.0412623331649
99.0412654034881
99.0412671800586
99.0412681823509
99.0412687329517
99.0412690269295
99.0412691800448
99.0412692583777
99.0412692982063
99.0412693186663
99.0412693295366
99.0412693355611
99.0412693391554
99.0412693414255
99.0412693429389
99.0412693439721
99.0412693447288
99.0412693453109
99.0412693457183
99.0412693460385
99.0412693462567
99.0412693463586
99.0412693463586
99.041269346184
99.0412693457765
99.0412693450344
99.0412693437684
99.0412693416292
99.0412693380495
99.0412693318358
99.0412693205581
99.0412692992541
99.0412692579557
99.041269177309
99.0412690209632
99.0412687229837
99.0412681684102
99.0412671640079
99.0412653895473
99.0412623257143
99.0412571197958
99.0412484888075
99.0412348031532
99.0412153779616
99.0411942076462
99.0414529281406
99.0414747443428
99.0414924453798
99.0415044392867
99.0415118255041
99.0415161884157
99.0415187033068
99.04152013149
99.0415209256171
99.0415213574597
99.0415215866524
99.0415217058617
99.0415217670961
99.0415217985719
99.0415218150592
99.0415218240378
99.0415218291892
99.0415218323324
99.0415218343696
99.0415218357521
99.0415218367416
99.0415218374546
99.0415218380222
99.0415218384151
99.0415218387207
99.0415218389244
99.0415218390553
99.0415218390553
99.0415218388953
99.041521838546
99.0415218378766
99.0415218367561
99.0415218348498
99.0415218317503
99.0415218265407
99.0415218173439
99.0415218003327
99.0415217679401
99.0415217052359
99.0415215839021
99.0415213519882
99.0415209172206
99.0415201210126
99.0415186929749
99.0415161794226
99.0415118070814
99.0415043600224
99.0414921775955
99.0414741108252
99.041452072197
99.0416523668828
99.0416716664768
99.0416860977421
99.041695484324
99.0417010877864
99.0417043086782
99.0417061220651
99.0417071330739
99.0417076878366
99.0417079872277
99.041708145829
99.0417082286876
99.0417082718195
99.0417082944768
99.0417083067441
99.0417083136999
99.0417083178618
99.0417083205248
99.0417083223147
99.0417083235516
99.0417083244538
99.0417083251232
99.0417083256325
99.0417083260254
99.0417083263164
99.0417083265347
99.0417083266511
99.0417083266802
99.0417083265638
99.0417083262582
99.0417083256907
99.0417083247157
99.041708323115
99.0417083205539
99.041708316392
99.0417083093489
99.0417082968488
99.0417082736967
99.041708229779
99.0417081457563
99.0417079855979
99.0417076844024
99.0417071281117
99.041706116448
99.0417043017369
99.0417010678357
99.0416954030079
99.0416858320241
99.0416710165009
99.041651305015
99.0417942111962
99.0418093605695
99.0418199519045
99.0418265688641
99.0418303945626
99.0418325312494
99.0418337047013
99.0418343465572
99.0418346942461
99.0418348808016
99.0418349798128
99.0418350320979
99.041835059892
99.0418350750115
99.0418350835826
99.0418350887048
99.0418350919499
99.0418350941036
99.041835095617
99.0418350966938
99.0418350974942
99.0418350980908
99.0418350985565
99.0418350989348
99.0418350992259
99.0418350994441
99.0418350995751
99.0418350996333
99.041835099546
99.0418350993132
99.0418350988475
99.0418350980617
99.0418350967666
99.0418350947439
99.0418350915716
99.0418350864638
99.0418350778054
99.0418350624823
99.0418350342952
99.0418349814572
99.0418348816893
99.0418346941879
99.0418343456258
99.0418337031588
99.0418325279461
99.0418303794577
99.041826501998
99.041819727543
99.0418087853323
99.0417931503907
99.0418878210476
99.0418985789875
99.0419056743704
99.0419099276041
99.04191230383
99.0419135884149
99.0419142738101
99.0419146402564
99.0419148357178
99.041914939924
99.0419149954396
99.0419150252128
99.0419150415546
99.0419150508678
99.0419150564703
99.0419150600355
99.0419150624366
99.0419150641101
99.0419150653179
99.0419150662201
99.041915066904
99.0419150674425
99.0419150678645
99.0419150682137
99.0419150684902
99.0419150687085
99.0419150688685
99.0419150689413
99.0419150689268
99.0419150687667
99.0419150684174
99.0419150678208
99.0419150668458
99.041915065347
99.0419150630769
99.0419150595699
99.0419150539528
99.0419150445814
99.0419150280795
99.0419149980589
99.0419149422087
99.0419148375804
99.0419146417262
99.041914275047
99.0419135885313
99.0419122956373
99.0419098816928
99.0419055088278
99.0418981292751
99.0418869126879
99.0419455116353
99.0419525143952
99.0419568940706
99.0419594024424
99.0419607487129
99.0419614461862
99.0419618035376
99.0419619878521
99.0419620834873
99.0419621336478
99.041962160336
99.041962174917
99.0419621832552
99.0419621883048
99.041962191608
99.0419621938636
99.0419621954934
99.0419621967158
99.041962197618
99.041962198331
99.0419621988694
99.0419621993206
99.0419621996843
99.0419622000045
99.0419622002664
99.0419622004993
99.0419622006739
99.0419622008048
99.0419622008485
99.0419622007903
99.0419622005866
99.0419622001937
99.0419621995388
99.0419621985347
99.0419621970505
99.0419621948677
99.0419621916226
99.0419621865585
99.0419621781621
99.0419621634937
99.0419621366455
99.0419620863395
99.0419619906024
99.0419618063752
99.0419614487182
99.0419607465446
99.0419593761326
99.0419567858335
99.0419521987496
99.0419448228349
99.0419788937143
99.0419831110485
99.0419856159569
99.0419869724574
99.0419876617088
99.0419879948167
99.0419881527923
99.0419882276328
99.0419882633287
99.04198828066
99.0419882894639
99.0419882942224
99.0419882971328
99.0419882991118
99.0419883006107
99.0419883017748
99.0419883027062
99.0419883034629
99.041988304074
99.0419883045688
99.0419883049763
99.0419883053255
99.0419883056456
99.0419883059221
99.0419883061695
99.0419883063878
99.0419883066061
99.0419883067661
99.0419883068826
99.0419883069408
99.0419883068826
99.0419883067079
99.0419883063732
99.0419883058494
99.0419883050927
99.0419883040449
99.0419883026334
99.0419883006689
99.0419882977585
99.0419882929418
99.0419882840797
99.0419882666756
99.0419882310089
99.0419881564449
99.0419879987312
99.0419876636442
99.041986960714
99.0419855532091
99.0419829101447
99.0419784220139
99.0419971113151
99.0419994759723
99.0420008050714
99.0420014693227
99.0420017765427
99.0420019032899
99.0420019503654
99.042001964568
99.0420019667945
99.0420019653393
99.0420019634475
99.0420019620069
99.0420019612211
99.0420019609301
99.0420019609737
99.042001961192
99.042001961483
99.0420019617886
99.0420019621088
99.0420019623853
99.0420019626472
99.0420019628946
99.0420019631274
99.0420019633748
99.0420019636076
99.0420019638404
99.0420019640733
99.0420019642916
99.0420019644807
99.0420019646408
99.0420019647572
99.0420019648009
99.0420019647863
99.0420019647281
99.0420019646263
99.0420019645535
99.0420019646117
99.0420019649609
99.0420019657467
99.0420019671874
99.04200196905
99.0420019705052
99.0420019683515
99.0420019544836
99.042001907932
99.0420017808065
99.0420014668489
99.042000773552
99.0419993596734
99.0419968161586
99.0420065198414
99.0420077583112
99.0420084086072
99.0420086908416
99.0420087944512
99.0420088143583
99.0420088049723
99.042008788223
99.0420087729144
99.0420087611274
99.0420087529637
99.0420087475795
99.042008744218
99.0420087421953
99.0420087410457
99.0420087404345
99.0420087401144
99.0420087400125
99.0420087400125
99.0420087400853
99.0420087402017
99.0420087403472
99.0420087405219
99.042008740711
99.0420087409293
99.0420087411767
99.0420087414241
99.042008741686
99.0420087419625
99.042008742239
99.0420087425009
99.0420087427919
99.0420087430975
99.0420087434468
99.0420087439707
99.0420087447419
99.0420087460225
99.0420087481325
99.0420087515231
99.0420087569219
99.0420087651
99.0420087769016
99.0420087923267
99.0420088093961
99.0420088193787
99.0420087998791
99.0420086935192
99.0420083962381
99.0420076976297
99.0420063501952
99.0420111268031
99.0420117321773
99.0420120191411
99.0420121077186
99.0420121125644
99.042012082733
99.0420120475756
99.0420120165072
99.0420119926712
99.0420119754417
99.0420119635965
99.042011955622
99.0420119504124
99.0420119470364
99.0420119448972
99.0420119435294
99.0420119426853
99.042011942176
99.042011941885
99.0420119417395
99.0420119416958
99.0420119417395
99.0420119418413
99.0420119420014
99.0420119422051
99.042011942438
99.042011942729
99.0420119430346
99.0420119433838
99.0420119437767
99.0420119442133
99.0420119447081
99.0420119453192
99.042011946105
99.0420119471819
99.0420119487244
99.042011951009
99.042011954487
99.0420119597693
99.0420119677729
99.0420119796472
99.0420119969349
99.0420120208873
99.0420120522758
99.0420120879862
99.0420121185452
99.0420121129864
99.042012017424
99.0420117047906
99.0420110375417
99.0420132637373
99.0420135376044
99.0420136440371
99.0420136436442
99.0420136063185
99.0420135568856
99.0420135120658
99.0420134754677
99.0420134479791
99.0420134280139
99.042013414044
99.042013404367
99.042013397775
99.0420133933512
99.0420133903681
99.0420133883454
99.0420133870211
99.042013386148
99.042013385566
99.0420133852167
99.0420133850275
99.0420133849693
99.0420133849984
99.0420133851148
99.0420133852895
99.0420133855368
99.0420133858424
99.0420133862062
99.0420133866282
99.0420133871376
99.0420133877196
99.0420133884472
99.0420133893494
99.0420133905136
99.0420133920852
99.0420133942825
99.0420133974403
99.0420134019951
99.0420134086744
99.0420134184096
99.0420134324668
99.0420134525193
99.0420134801388
99.0420135170425
99.0420135623863
99.0420136125467
99.0420136501052
99.0420136477478
99.0420135285676
99.0420132217114
99.0420141962531
99.0420143079537
99.042014331746
99.0420142960502
99.0420142446965
99.042014190476
99.0420141438808
99.0420141061913
99.0420140776114
99.0420140564675
99.0420140412898
99.0420140304923
99.0420140229107
99.0420140176284
99.0420140139468
99.0420140114002
99.0420140096248
99.0420140084025
99.042014007573
99.0420140070346
99.0420140067145
99.0420140065398
99.0420140064962
99.0420140065689
99.0420140067436
99.0420140069909
99.0420140073111
99.0420140077185
99.0420140082279
99.0420140088245
99.0420140095666
99.0420140104834
99.0420140116621
99.0420140131755
99.0420140151982
99.0420140179776
99.0420140218339
99.0420140272618
99.0420140349452
99.0420140458591
99.0420140611386
99.042014082399
99.042014111139
99.0420141491195
99.0420141961804
99.0420142510702
99.0420143029914
99.0420143379597
99.0420143082883
99.0420141799696
99.0420145706885
99.0420146084798
99.0420145983808
99.0420145527169
99.0420145001699
99.0420144477976
99.0420144030359
99.0420143663941
99.0420143381052
99.0420143166848
99.0420143009251
99.0420142894291
99.0420142811345
99.0420142751973
99.0420142709627
99.0420142679359
99.0420142657968
99.0420142642688
99.0420142632211
99.042014262508
99.0420142620424
99.0420142617804
99.0420142616786
99.0420142617222
99.0420142618532
99.0420142621006
99.0420142624644
99.0420142629155
99.042014263483
99.0420142641815
99.0420142650546
99.0420142661605
99.0420142675575
99.0420142693911
99.0420142718067
99.0420142750663
99.0420142795047
99.0420142856019
99.0420142940275
99.0420143056544
99.0420143215306
99.0420143430965
99.0420143715746
99.0420144085074
99.0420144536765
99.0420145066601
99.0420145598328
99.0420146056276
99.0420146132528
99.0420145674725
99.0420146992692
99.0420147061086
99.0420146847173
99.0420146398974
99.0420145913376
99.0420145434327
99.0420145019598
99.042014467399
99.0420144401287
99.0420144189993
99.042014403065
99.0420143912052
99.0420143824449
99.0420143760275
99.0420143713563
99.0420143679657
99.0420143655065
99.0420143637311
99.0420143624797
99.0420143616066
99.042014361039
99.0420143606898
99.0420143605297
99.0420143605297
99.0420143606607
99.0420143609081
99.0420143612719
99.0420143617666
99.0420143623924
99.0420143631927
99.0420143641823
99.0420143654483
99.0420143670635
99.0420143691445
99.0420143718802
99.0420143755182
99.0420143804076
99.0420143869997
99.04201439592
99.0420144079253
99.0420144240052
99.0420144452946
99.0420144727832
99.0420145076205
99.0420145494718
99.0420145979006
99.0420146470569
99.0420146923134
99.0420147128025
99.0420147022669
99.042014725419
99.0420147208497
99.0420146977558
99.0420146576944
99.0420146147662
99.0420145720418
99.0420145343815
99.0420145023236
99.0420144764648
99.0420144559903
99.0420144402306
99.0420144282398
99.0420144192321
99.0420144124946
99.0420144075033
99.0420144038217
99.042014401115
99.042014399136
99.0420143977099
99.0420143967058
99.0420143960364
99.0420143956144
99.0420143953961
99.042014395367
99.0420143954689
99.0420143957163
99.0420143961092
99.042014396633
99.042014397317
99.0420143981901
99.042014399296
99.042014400693
99.0420144024683
99.0420144047821
99.0420144077798
99.0420144117234
99.0420144169329
99.0420144238597
99.0420144330565
99.0420144452073
99.0420144611271
99.0420144817908
99.0420145078679
99.0420145402022
99.0420145782118
99.0420146214019
99.0420146648685
99.0420147054247
99.0420147282857
99.042014731167
99.0420147117984
99.0420147040859
99.0420146828983
99.0420146485121
99.0420146113029
99.0420145737153
99.0420145398821
99.0420145104872
99.0420144862437
99.0420144667005
99.0420144513482
99.0420144394448
99.0420144303498
99.0420144234522
99.0420144182572
99.0420144143573
99.0420144114614
99.0420144093223
99.0420144077652
99.0420144066447
99.042014405888
99.0420144054078
99.0420144051459
99.0420144050731
99.042014405175
99.0420144054224
99.0420144058153
99.0420144063828
99.0420144071104
99.0420144080417
99.042014409235
99.0420144107338
99.0420144126692
99.0420144151431
99.0420144183299
99.0420144224918
99.0420144279342
99.0420144350501
99.0420144443342
99.0420144564123
99.0420144719537
99.0420144916861
99.0420145161479
99.0420145458193
99.0420145799872
99.0420146179677
99.0420146556426
99.0420146904944
99.0420147117111
99.0420147186524
99.0420146844699
99.042014676801
99.0420146585529
99.042014629551
99.0420145976386
99.0420145648095
99.0420145346434
99.0420145079115
99.0420144854434
99.042014466977
99.0420144522068
99.0420144405798
99.0420144315576
99.0420144246018
99.0420144193049
99.0420144152886
99.0420144122618
99.0420144100062
99.0420144083473
99.0420144071395
99.0420144063246
99.0420144057862
99.0420144054806
99.0420144053933
99.0420144054806
99.042014405728
99.0420144061354
99.0420144067175
99.0420144074742
99.0420144084637
99.0420144097297
99.0420144113159
99.0420144133532
99.0420144159434
99.0420144192758
99.0420144235832
99.0420144291274
99.042014436287
99.0420144455275
99.0420144573436
99.0420144722884
99.0420144909731
99.0420145136741
99.0420145406679
99.0420145711396
99.0420146043325
99.0420146366523
99.0420146660326
99.0420146843971
99.0420146917022
99.0420146536781
99.0420146470715
99.0420146317774
99.042014607563
99.0420145803073
99.0420145518001
99.0420145250537
99.042014500912
99.0420144802629
99.0420144630043
99.0420144489763
99.0420144377713
99.0420144289383
99.0420144220407
99.0420144167147
99.0420144126401
99.0420144095406
99.0420144072123
99.0420144054806
99.0420144042291
99.0420144033415
99.0420144027739
99.0420144024538
99.0420144023374
99.0420144024101
99.0420144026575
99.042014403065
99.0420144036616
99.042014404462
99.0420144054951
99.0420144067903
99.0420144084492
99.0420144105447
99.0420144132222
99.0420144166419
99.0420144209929
99.0420144265809
99.0420144336967
99.042014442748
99.0420144541567
99.0420144683885
99.0420144858654
99.0420145067474
99.0420145311509
99.0420145581738
99.0420145870012
99.0420146145916
99.0420146391552
99.0420146545803
99.0420146609686
99.0420146231336
99.042014617793
99.0420146051765
99.0420145850367
99.0420145618846
99.0420145372336
99.042014513645
99.0420144919917
99.0420144731615
99.042014457169
99.042014443985
99.0420144332893
99.0420144247619
99.0420144180389
99.0420144127856
99.0420144087111
99.0420144055824
99.042014403225
99.0420144014643
99.0420144001691
99.0420143992524
99.0420143986557
99.0420143983065
99.0420143981755
99.0420143982483
99.0420143984957
99.0420143989177
99.0420143995143
99.0420144003292
99.0420144013769
99.0420144027157
99.0420144044037
99.0420144065429
99.0420144092641
99.0420144126983
99.0420144170494
99.0420144225645
99.0420144295349
99.0420144382806
99.0420144491945
99.0420144625823
99.0420144787931
99.0420144978707
99.0420145197713
99.0420145436219
99.0420145685639
99.0420145920216
99.0420146124525
99.0420146251709
99.0420146303804
99.0420145939279
99.0420145897951
99.0420145795069
99.0420145628595
99.0420145432727
99.0420145220414
99.0420145013777
99.0420144820964
99.0420144650561
99.0420144503732
99.042014438106
99.0420144280361
99.0420144199015
99.0420144133968
99.0420144082891
99.0420144042873
99.0420144012023
99.0420143988449
99.0420143970696
99.0420143957599
99.0420143948286
99.0420143942174
99.0420143938682
99.0420143937226
99.0420143937808
99.0420143940282
99.0420143944502
99.0420143950614
99.0420143958763
99.0420143969386
99.0420143982919
99.0420143999945
99.0420144021336
99.0420144048403
99.0420144082454
99.0420144125383
99.0420144179225
99.04201442466
99.0420144330274
99.0420144433156
99.0420144558011
99.0420144707023
99.0420144879899
99.0420145075186
99.0420145284443
99.0420145499229
99.0420145697863
99.042014586681
99.0420145970711
99.042014601102
99.0420145663229
99.0420145632525
99.0420145549579
99.0420145413082
99.0420145248063
99.0420145066746
99.0420144886739
99.0420144716336
99.0420144563395
99.0420144429809
99.042014431674
99.042014422288
99.0420144146192
99.0420144084346
99.0420144035161
99.0420143996453
99.042014396633
99.0420143943047
99.0420143925585
99.0420143912634
99.042014390332
99.0420143897209
99.0420143893571
99.0420143892261
99.0420143892698
99.0420143895171
99.0420143899391
99.0420143905503
99.0420143913652
99.042014392413
99.0420143937663
99.0420143954543
99.0420143975789
99.0420144002419
99.0420144035743
99.0420144077361
99.0420144129312
99.0420144193631
99.0420144272648
99.0420144368836
99.0420144484087
99.0420144619857
99.0420144775126
99.0420144948002
99.0420145130338
99.0420145314274
99.0420145481476
99.0420145620301
99.042014570412
99.0420145734097
99.0420145401295
99.0420145380194
99.0420145314565
99.0420145203825
99.0420145066309
99.0420144912496
99.0420144757081
99.0420144607779
99.0420144471718
99.0420144351519
99.0420144248492
99.0420144161762
99.0420144090313
99.042014403225
99.0420143985539
99.0420143948577
99.0420143919473
99.0420143897063
99.0420143880037
99.0420143867377
99.0420143858355
99.0420143852243
99.0420143848751
99.0420143847296
99.0420143847878
99.0420143850206
99.042014385428
99.0420143860392
99.0420143868396
99.0420143878873
99.042014389197
99.0420143908559
99.0420143929368
99.0420143955271
99.042014398743
99.0420144027448
99.0420144076779
99.0420144137461
99.0420144211239
99.0420144300151
99.0420144405507
99.0420144528034
99.0420144666423
99.0420144818199
99.0420144975942
99.0420145132084
99.0420145271783
99.042014538456
99.0420145450917
99.042014547158
99.0420145152166
99.0420145139506
99.0420145089156
99.0420145001117
99.0420144888049
99.0420144758973
99.0420144626114
99.0420144496602
99.042014437684
99.0420144269738
99.0420144176751
99.042014409788
99.0420144031959
99.0420143977972
99.0420143934316
99.0420143899391
99.0420143871888
99.0420143850497
99.0420143834199
99.0420143821975
99.042014381339
99.0420143807423
99.0420143804076
99.0420143802767
99.0420143803203
99.0420143805532
99.0420143809606
99.0420143815427
99.042014382343
99.0420143833471
99.0420143846277
99.042014386243
99.0420143882366
99.0420143907104
99.0420143937954
99.0420143975643
99.0420144022064
99.0420144078671
99.0420144146774
99.0420144228119
99.0420144323289
99.0420144432719
99.042014455481
99.042014468665
99.0420144821837
99.0420144953096
99.0420145068347
99.0420145158278
99.0420145209355
99.0420145221724
99.0420144913078
99.0420144908421
99.0420144871896
99.0420144804084
99.0420144712698
99.0420144606323
99.0420144494274
99.0420144383388
99.0420144279196
99.04201441849
99.04201441021
99.0420144030941
99.0420143971278
99.0420143921801
99.0420143881493
99.0420143849042
99.0420143823285
99.0420143803203
99.0420143787778
99.0420143776282
99.0420143768133
99.0420143762458
99.0420143759256
99.0420143758092
99.0420143758674
99.0420143760857
99.0420143764786
99.0420143770607
99.0420143778028
99.0420143787924
99.0420143800147
99.0420143815427
99.042014383449
99.0420143857918
99.0420143886877
99.0420143922238
99.0420143965312
99.0420144017262
99.0420144079399
99.0420144152886
99.0420144237869
99.0420144334494
99.0420144441014
99.0420144554228
99.0420144668606
99.0420144777163
99.0420144870586
99.0420144940144
99.0420144977543
99.0420144982345
99.0420144682867
99.0420144685777
99.0420144661766
99.042014461229
99.0420144540694
99.0420144454984
99.0420144362142
99.0420144268719
99.0420144179516
99.0420144097734
99.0420144024974
99.0420143961965
99.0420143908414
99.0420143863885
99.0420143827214
99.0420143797528
99.0420143773808
99.0420143755182
99.0420143740921
99.0420143730298
99.0420143722586
99.0420143717492
99.0420143714582
99.0420143713418
99.0420143714146
99.0420143716328
99.0420143720112
99.0420143725642
99.0420143732772
99.0420143742085
99.0420143753727
99.0420143768133
99.0420143785886
99.042014380786
99.0420143834635
99.0420143867232
99.0420143906522
99.0420143953816
99.0420144009695
99.0420144075179
99.0420144150121
99.0420144234231
99.0420144325617
99.0420144421369
99.0420144516538
99.0420144604432
99.0420144678064
99.0420144729287
99.0420144754316
99.0420144751697
99.042014445964
99.0420144469972
99.0420144457748
99.0420144425298
99.0420144371892
99.0420144305244
99.0420144230302
99.0420144153322
99.042014407838
99.0420144008676
99.0420143945812
99.0420143890951
99.0420143843803
99.0420143804076
99.0420143771335
99.0420143744705
99.0420143723313
99.0420143706433
99.0420143693482
99.0420143683878
99.0420143676893
99.0420143672236
99.0420143669617
99.0420143668744
99.0420143669326
99.0420143671654
99.0420143675292
99.0420143680385
99.0420143687224
99.042014369581
99.0420143706724
99.0420143720112
99.0420143736555
99.0420143756637
99.042014378123
99.042014381077
99.0420143846131
99.0420143888332
99.0420143937808
99.0420143995143
99.042014406019
99.0420144132077
99.0420144209347
99.042014428851
99.042014436578
99.0420144434611
99.0420144490199
99.0420144524542
99.0420144537929
99.0420144528034
99.0420144241798
99.0420144259842
99.0420144258824
99.0420144242526
99.0420144206
99.042014415696
99.0420144098753
99.0420144037198
99.0420143975934
99.0420143917872
99.0420143864903
99.0420143818046
99.0420143777301
99.0420143742813
99.0420143714146
99.0420143690717
99.0420143671799
99.0420143656811
99.0420143645315
99.0420143636729
99.0420143630618
99.0420143626543
99.0420143624215
99.0420143623633
99.042014362436
99.0420143626397
99.042014362989
99.0420143634692
99.0420143641095
99.0420143649098
99.0420143659139
99.0420143671217
99.0420143686206
99.0420143704396
99.0420143726369
99.0420143752708
99.0420143783995
99.0420143821102
99.042014386403
99.0420143913361
99.0420143968513
99.0420144028758
99.042014409235
99.0420144156087
99.0420144216478
99.04201442677
99.0420144306554
99.0420144324889
99.0420144327218
99.0420144310046
99.0420144028758
99.0420144054806
99.0420144064847
99.0420144063974
99.0420144043164
99.0420144010714
99.0420143968076
99.0420143921219
99.0420143872907
99.0420143826195
99.0420143782685
99.0420143743686
99.0420143709634
99.0420143680385
99.0420143655938
99.0420143635711
99.0420143619413
99.0420143606461
99.0420143596566
99.0420143589145
99.0420143583906
99.0420143580413
99.0420143578667
99.0420143578231
99.0420143579104
99.0420143581141
99.0420143584342
99.0420143588854
99.0420143594674
99.042014360195
99.0420143610972
99.0420143621886
99.0420143635129
99.0420143651281
99.042014367049
99.0420143693482
99.0420143720694
99.0420143752417
99.0420143788797
99.0420143830124
99.0420143875817
99.0420143924566
99.0420143975207
99.0420144024392
99.0420144069212
99.0420144103846
99.0420144126983
99.0420144129894
99.0420144121454
99.0420144096424
99.0420143818774
99.0420143853553
99.0420143874653
99.0420143888914
99.0420143883239
99.0420143866359
99.0420143838564
99.0420143805386
99.0420143769443
99.04201437335
99.0420143699448
99.0420143668161
99.0420143640513
99.0420143616648
99.0420143596421
99.0420143579686
99.0420143566153
99.0420143555384
99.042014354709
99.0420143540832
99.0420143536612
99.0420143533847
99.0420143532538
99.0420143532392
99.0420143533411
99.0420143535302
99.0420143538358
99.0420143542433
99.0420143547672
99.0420143554074
99.0420143562078
99.0420143571682
99.0420143583178
99.0420143597148
99.0420143613592
99.0420143633091
99.0420143655938
99.0420143682277
99.0420143712254
99.0420143745723
99.0420143781957
99.0420143819938
99.0420143858209
99.0420143893571
99.0420143923693
99.0420143942756
99.042014395076
99.0420143938827
99.0420143919619
99.0420143886295
99.0420143611263
99.0420143655938
99.0420143688243
99.0420143717492
99.0420143726224
99.0420143724332
99.0420143710362
99.0420143690135
99.0420143665979
99.0420143640367
99.0420143615338
99.0420143591764
99.0420143570518
99.0420143551892
99.042014353603
99.0420143522788
99.0420143512019
99.0420143503434
99.0420143496885
99.0420143492083
99.0420143488736
99.0420143486699
99.0420143485971
99.0420143486117
99.0420143487136
99.0420143489027
99.0420143491938
99.0420143495576
99.0420143500087
99.0420143505762
99.0420143512601
99.0420143520751
99.04201435305
99.0420143542142
99.0420143555675
99.0420143571682
99.0420143590163
99.0420143611118
99.0420143634692
99.0420143660449
99.0420143687661
99.042014371531
99.0420143741794
99.0420143763913
99.0420143780211
99.0420143784577
99.0420143778319
99.0420143751398
99.042014372113
99.0420143678348
99.0420143405499
99.0420143461088
99.042014350518
99.0420143549563
99.042014357241
99.0420143584633
99.042014358376
99.0420143575902
99.0420143562806
99.0420143547235
99.0420143530791
99.0420143514639
99.042014349965
99.0420143486263
99.0420143474767
99.0420143465017
99.0420143457013
99.0420143450756
99.0420143445954
99.0420143442607
99.0420143440424
99.0420143439114
99.0420143438823
99.042014343926
99.042014344057
99.0420143442461
99.0420143444935
99.0420143448137
99.0420143452066
99.0420143456868
99.0420143462543
99.0420143469237
99.0420143477095
99.0420143486263
99.0420143497031
99.04201435094
99.0420143523515
99.0420143539232
99.0420143556403
99.0420143574738
99.0420143593365
99.0420143610827
99.0420143626106
99.0420143636002
99.0420143639203
99.0420143629308
99.0420143609226
99.0420143567317
99.0420143525553
99.0420143472147
99.0420143200608
99.0420143269002
99.0420143325464
99.0420143385418
99.0420143421798
99.04201434477
99.042014345905
99.0420143462834
99.0420143460215
99.0420143454103
99.0420143446099
99.0420143437223
99.0420143428346
99.0420143420051
99.0420143412775
99.0420143406518
99.042014340157
99.0420143397496
99.0420143394585
99.0420143392694
99.042014339153
99.0420143391093
99.0420143391239
99.0420143392112
99.0420143393421
99.0420143395313
99.0420143397496
99.0420143400261
99.0420143403608
99.0420143407391
99.0420143411902
99.0420143416995
99.0420143422962
99.0420143429801
99.0420143437659
99.0420143446536