/*--------------------------------*- C++ -*----------------------------------*\
  =========                 |
  \\      /  F ield         | OpenFOAM: The Open Source CFD Toolbox
   \\    /   O peration     | Website:  https://openfoam.org
    \\  /    A nd           | Version:  10
     \\/     M anipulation  |
\*---------------------------------------------------------------------------*/
FoamFile
{
    format      ascii;
    class       surfaceScalarField;
    location    "7.6";
    object      phi;
}
// * * * * * * * * * * * * * * * * * * * * * * * * * * * * * * * * * * * * * //

dimensions      [1 0 -1 0 0 0 0];

internalField   nonuniform List<scalar> 
4900
(
-5.45089710488103e-12
5.47513884141333e-12
-7.97506500437424e-12
2.56147009183604e-12
-7.58434069625495e-12
-3.50920050165472e-13
-5.90327145128184e-12
-1.64202298607849e-12
-4.17921840737105e-12
-1.68567413136925e-12
-2.83596370660604e-12
-1.30514984585176e-12
-1.89767292154717e-12
-9.00327108552624e-13
-1.26957624305728e-12
-5.90302540555992e-13
-8.55435786677462e-13
-3.76591487521441e-13
-5.8224832045889e-13
-2.35956700403819e-13
-4.00209108239156e-13
-1.45177134580885e-13
-2.76748846609695e-13
-8.69951722703924e-14
-1.91002859278935e-13
-4.96854507732719e-14
-1.29790018602358e-13
-2.55511551681448e-14
-8.48314307808042e-14
-9.67935632682586e-15
-5.09156557509648e-14
1.00184538339671e-15
-2.47245811065368e-14
8.38975419102486e-15
-4.08532186597822e-15
1.36297375326159e-14
1.24697732907254e-14
1.74277396225735e-14
2.59591830389049e-14
2.02319792340913e-14
3.71314909553005e-14
2.23117745409708e-14
4.65593189902175e-14
2.38423109320207e-14
5.46967721782751e-14
2.49416366412058e-14
6.19279278272847e-14
2.56780485020955e-14
6.85945200667119e-14
2.60936883485173e-14
7.50163654785384e-14
2.6209418241725e-14
8.15159322250102e-14
2.60217091465364e-14
8.84313854959593e-14
2.55133277605338e-14
9.61358392487015e-14
2.46491899079044e-14
1.05088620158881e-13
2.33425236399083e-14
1.15847156350656e-13
2.14950562028972e-14
1.29146916167895e-13
1.8929032236895e-14
1.46000608117667e-13
1.53683675737627e-14
1.67862856154614e-13
1.03718229752484e-14
1.96910441269789e-13
3.21811901700484e-15
2.36488880608642e-13
-7.26039795605321e-15
2.91819573887511e-13
-2.29415293327021e-14
3.71196375939305e-13
-4.68995671259e-14
4.87772090903742e-13
-8.39994349441316e-14
6.62414511645273e-13
-1.4196420715682e-13
9.27664039832436e-13
-2.32478440364596e-13
1.33339150903479e-12
-3.72882720619862e-13
1.95317790002759e-12
-5.86891208508079e-13
2.88536574723636e-12
-8.99242548672913e-13
4.22998090787715e-12
-1.31153773772751e-12
5.97123132616471e-12
-1.70778647547323e-12
7.68550420454247e-12
-1.6799590371547e-12
8.08894335066755e-12
-3.67700662744304e-13
5.50649243593858e-12
2.61853090246667e-12
5.53164579094955e-12
-8.56527490459724e-12
1.40742603263142e-11
-1.39806109811294e-11
8.02531208995827e-12
-1.38554945517201e-11
-4.25134735885064e-13
-1.11532226771612e-11
-4.29438626784101e-12
-8.12188973744833e-12
-4.66799904669702e-12
-5.66777420835939e-12
-3.71072804601486e-12
-3.90170617498125e-12
-2.61816377995175e-12
-2.69189544901358e-12
-1.75219667709119e-12
-1.87481146365648e-12
-1.14613770901071e-12
-1.32154507349862e-12
-7.42127335681352e-13
-9.41600223347222e-13
-4.78511764720936e-13
-6.75096587035141e-13
-3.07395666911938e-13
-4.83261262171285e-13
-1.95926334172434e-13
-3.41309474654202e-13
-1.22405009204098e-13
-2.33416282142574e-13
-7.29484855109739e-14
-1.49403351677077e-13
-3.88341602650736e-14
-8.2612662537483e-14
-1.46394817629436e-14
-2.85610228285838e-14
2.95444424798418e-15
1.58700841587029e-14
1.60199950528591e-14
5.29306364605398e-14
2.58717593809604e-14
8.4317273740265e-14
3.33336654972311e-14
1.11359111719819e-13
3.89447989592183e-14
1.35155787891682e-13
4.30542753480043e-14
1.5663924611759e-13
4.58955527868425e-14
1.76657101962837e-13
4.75945936176974e-14
1.96013019340584e-13
4.82144922763586e-14
2.15503174191145e-13
4.77577909812568e-14
2.35971596844776e-13
4.61593556449878e-14
2.58345000931628e-13
4.32993641790911e-14
2.83696651942362e-13
3.8944817677902e-14
3.13345688796457e-13
3.27509767870797e-14
3.48960367790194e-13
2.41921670151134e-14
3.92763870632297e-13
1.24376358185427e-14
4.47854849547321e-13
-3.82718150562363e-15
5.18725604696159e-13
-2.67165899763774e-14
6.12059858486088e-13
-5.95892573730983e-14
7.38061056086974e-13
-1.07843948561343e-13
9.12576085559876e-13
-1.80201394306347e-13
1.16039659764186e-12
-2.90479254529812e-13
1.5203282703076e-12
-4.60423372604395e-13
2.0523079563601e-12
-7.22862778736557e-13
2.84714329384262e-12
-1.12601915883758e-12
4.03509172080298e-12
-1.73305604004005e-12
5.78389625780301e-12
-2.60615578922687e-12
8.235522272782e-12
-3.72101489619849e-12
1.12946458135036e-11
-4.72410684400804e-12
1.40562274238797e-11
-4.39743759972646e-12
1.42073819001266e-11
-4.73077336235825e-13
8.69295309801484e-12
8.17750291986556e-12
1.42536609269146e-11
-7.17144458654488e-12
2.12820057486352e-11
-1.31760181557115e-11
1.40800090938537e-11
-1.36936957126088e-11
1.44294836038498e-13
-1.14771128177014e-11
-6.46046514269496e-12
-8.68157822500013e-12
-7.41417933895374e-12
-6.2984334220171e-12
-6.04524220796745e-12
-4.51196141615497e-12
-4.3565187433871e-12
-3.24281526881444e-12
-2.97368891383735e-12
-2.35341756900352e-12
-1.98835362787913e-12
-1.72760215637751e-12
-1.32125586098072e-12
-1.2803904560469e-12
-8.79544656006645e-13
-9.53969675926349e-13
-5.88150180167511e-13
-7.09921706679645e-13
-3.94810971668343e-13
-5.22987397582454e-13
-2.64663033949629e-13
-3.76525333670134e-13
-1.7519658521874e-13
-2.59445780053711e-13
-1.12135420206522e-13
-1.64210859553133e-13
-6.65015547452099e-14
-8.55568171765923e-14
-3.27018567426266e-14
-1.96939600755176e-14
-7.189971885968e-15
3.62139285349848e-14
1.23019586685565e-14
8.43657466282673e-14
2.72346914581537e-14
1.26526564802287e-13
3.85801458367128e-14
1.64183777222889e-13
4.69633643095226e-14
1.9862474230945e-13
5.28181562495328e-14
2.31030928050524e-13
5.6374421005604e-14
2.62531894677411e-13
5.77457005596121e-14
2.94242734354878e-13
5.69492542168109e-14
3.27336499256006e-13
5.38588023337161e-14
3.63095782122494e-13
4.82460927262209e-14
4.02975807252979e-13
3.97035872317216e-14
4.48730207476477e-13
2.75889375972067e-14
5.02527700531862e-13
1.09617231280777e-14
5.67161440297067e-13
-1.16320055381749e-14
6.46406364756712e-13
-4.24874035109312e-14
7.45526033346451e-13
-8.52064947296238e-14
8.72062789762953e-13
-1.45425893644403e-13
1.03713317096382e-12
-2.3211977840911e-13
1.25739571673142e-12
-3.5955293536233e-13
1.55814468608093e-12
-5.50184332456209e-13
1.97787369984861e-12
-8.38966969012469e-13
2.57456790399077e-12
-1.27823042817205e-12
3.43371746668752e-12
-1.94370804711703e-12
4.673092716506e-12
-2.93083659822172e-12
6.43478139125428e-12
-4.32606674430933e-12
8.80879713107947e-12
-6.05288017056692e-12
1.16277277822199e-11
-7.50005007426163e-12
1.39053700121789e-11
-6.63053144903627e-12
1.34277377247059e-11
5.0776550601399e-14
7.33478808777375e-12
1.4314818023799e-11
2.16167759165963e-11
-4.25049468731071e-12
2.55699165291719e-11
-9.095797020987e-12
1.89758981617652e-11
-1.02070012646784e-11
1.30716554490291e-12
-9.13515996455165e-12
-7.48215421431453e-12
-7.34911297669781e-12
-9.15147891839961e-12
-5.65890449925154e-12
-7.68766899391817e-12
-4.29152159841554e-12
-5.67682418592043e-12
-3.25428191716048e-12
-3.96444207356869e-12
-2.48177604538516e-12
-2.71491958008247e-12
-1.90616990467659e-12
-1.85145041769787e-12
-1.47248708667634e-12
-1.26833178777237e-12
-1.14058536309543e-12
-8.75660013092204e-13
-8.8210140546851e-13
-6.09389438762951e-13
-6.7724451278106e-13
-4.2608066706934e-13
-5.12190253153746e-13
-2.97253516113216e-13
-3.77185197181846e-13
-2.04559199040708e-13
-2.65231405641731e-13
-1.36261848261303e-13
-1.71207818399005e-13
-8.48911216719356e-14
-9.12626603603663e-14
-4.56308084832159e-14
-2.24125033114651e-14
-1.5345598226336e-14
3.77159973701783e-14
8.03457887006358e-15
9.10853414567852e-14
2.5892747354613e-14
1.3936872485965e-13
3.91424034611854e-14
1.84045477403738e-13
4.84091691489437e-14
2.26475897832862e-13
5.40416993778627e-14
2.6796743681863e-13
5.62049317977672e-14
3.09819127714599e-13
5.49236065825494e-14
3.5338236680639e-13
5.00179442312891e-14
4.0012712344573e-13
4.11400445191122e-14
4.51701308898401e-13
2.77046086284488e-14
5.10039687152638e-13
8.78185329860377e-15
5.77497400387874e-13
-1.69886187560267e-14
6.57015279104433e-13
-5.1644710248146e-14
7.52423313646632e-13
-9.83702139657825e-14
8.68830135032008e-13
-1.62044311072326e-13
1.01321627949134e-12
-2.50174270677054e-13
1.19533896749772e-12
-3.74512375046987e-13
1.4290181696206e-12
-5.53387400073901e-13
1.7340814698261e-12
-8.15269630254014e-13
2.13897577523195e-12
-1.20373579778607e-12
2.68405421544145e-12
-1.78302848401826e-12
3.42481327354092e-12
-2.64402803837454e-12
4.43044456884435e-12
-3.89585698039901e-12
5.76997640084378e-12
-5.62475469466449e-12
7.44479694693814e-12
-7.68641547771816e-12
9.24304770921223e-12
-9.25607513783395e-12
1.03639259253021e-11
-7.70746555398575e-12
9.30185987780722e-12
1.15850898000359e-12
4.40393484515481e-12
1.92562920903522e-11
2.60482601481725e-11
-1.40212089726476e-12
2.70093352232723e-11
-4.42431714774149e-12
2.2047679058523e-11
-5.90387759449094e-12
2.83666957187635e-12
-6.00310165352267e-12
-7.33470304219582e-12
-5.36829857340836e-12
-9.73964369508265e-12
-4.52198403653667e-12
-8.48849393042099e-12
-3.70111730822892e-12
-6.45304608636208e-12
-2.99294547050273e-12
-4.62864771040315e-12
-2.40931228429898e-12
-3.255176166677e-12
-1.93712654726044e-12
-2.28079916548205e-12
-1.55678983525958e-12
-1.60633808447592e-12
-1.24970635138712e-12
-1.14089606174299e-12
-1.00023969311669e-12
-8.17469444802063e-13
-7.95913569710298e-13
-5.8946001494009e-13
-6.27009503095727e-13
-4.25626869944158e-13
-4.86021726154483e-13
-3.05408995552304e-13
-3.67149004155135e-13
-2.15362753648106e-13
-2.65882161463014e-13
-1.46726786243629e-13
-1.78663297032302e-13
-9.37314002234408e-14
-1.02636237518205e-13
-5.25413860047657e-14
-3.54523046740606e-14
-2.0578047287823e-14
2.48689130005907e-14
3.90841294671512e-15
8.00405898970172e-14
2.20983028681744e-14
1.31607954352481e-13
3.47845762353351e-14
1.8099693870599e-13
4.24339489829929e-14
2.29574943521509e-13
4.52686789584784e-14
2.7871693134603e-13
4.33050940021188e-14
3.29836264971948e-13
3.63235756299324e-14
3.84455636880431e-13
2.38666350963101e-14
4.44276666272324e-13
5.16927682708612e-15
5.11247887877934e-13
-2.094538400592e-14
5.87694962688968e-13
-5.62140601922236e-14
6.76440397623368e-13
-1.03170961750374e-13
7.81010298708148e-13
-1.65702488850686e-13
9.05882084898208e-13
-2.49637167322808e-13
1.05682500287541e-12
-3.63773644766672e-13
1.24131060141503e-12
-5.21566629911996e-13
1.46903112521802e-12
-7.43566559854391e-13
1.75246203364497e-12
-1.06102957372636e-12
2.10726571290965e-12
-1.52072177868493e-12
2.55217542275131e-12
-2.18996178007076e-12
3.10709773308735e-12
-3.16080483034814e-12
3.78591082260204e-12
-4.5363386722042e-12
4.5789568219089e-12
-6.37922045243695e-12
5.40488959247551e-12
-8.47331640524922e-12
6.03879872146299e-12
-9.84999738621299e-12
5.97009691693574e-12
-7.59702043946184e-12
4.53971420989477e-12
2.63231245228484e-12
1.50715080110715e-12
2.23301165940904e-11
2.75810384360836e-11
6.42158274864391e-13
2.64036625928929e-11
-6.70721681572283e-13
2.34082727407109e-11
-2.25776967284726e-12
4.47130180627841e-12
-3.20692858790596e-12
-6.33984275977997e-12
-3.49329548624813e-12
-9.40930654017471e-12
-3.36057833558095e-12
-8.57852570616102e-12
-3.02643315800998e-12
-6.74545174978799e-12
-2.6277392281261e-12
-4.98634020100161e-12
-2.23386110664647e-12
-3.60866626929324e-12
-1.87516640999217e-12
-2.59964372244957e-12
-1.56149508434931e-12
-1.88064959835604e-12
-1.29285568399148e-12
-1.37063400756411e-12
-1.06502926681765e-12
-1.00682811545501e-12
-8.72398689281811e-13
-7.44035089340804e-13
-7.09302265101273e-13
-5.5105865892302e-13
-5.70614807702948e-13
-4.06801298620534e-13
-4.51925542894658e-13
-2.9710207920263e-13
-3.49536204922195e-13
-2.12488225500272e-13
-2.60355973120653e-13
-1.46580631611862e-13
-1.81803738919866e-13
-9.50345798086259e-14
-1.11690127815492e-13
-5.48794591722956e-14
-4.81265464283046e-14
-2.40654552412067e-14
1.05527355545557e-14
-1.18971305448541e-15
6.5860380044695e-14
1.46924287934491e-14
1.1920963294304e-13
2.41470733902685e-14
1.71957905987332e-13
2.74504125446081e-14
2.25469948731941e-13
2.4611099622088e-14
2.81143074655214e-13
1.53761412073658e-14
3.40469779378055e-13
-8.09607981105904e-16
4.05104095348045e-13
-2.48717005612758e-14
4.76897952303115e-13
-5.81851364988406e-14
5.58015754072341e-13
-1.02799275572997e-13
6.51007238574384e-13
-1.61632616366849e-13
7.58920891616383e-13
-2.39069102985165e-13
8.85410367353081e-13
-3.41541663739753e-13
1.03483553088316e-12
-4.7855406059182e-13
1.21225828824103e-12
-6.64263001708709e-13
1.42327934213358e-12
-9.19757559625596e-13
1.67346147487216e-12
-1.27625755420664e-12
1.96696531185274e-12
-1.77912898469941e-12
2.30376741125065e-12
-2.49150962715316e-12
2.67401567113955e-12
-3.49562887996117e-12
3.0474496566094e-12
-4.87416125698183e-12
3.35544176798187e-12
-6.65135783576065e-12
3.46437313404344e-12
-8.54596117006727e-12
3.16539832151778e-12
-9.51381517461073e-12
2.22768130215515e-12
-6.62037836499497e-12
6.82121033137716e-13
4.21844198598888e-12
-6.03578920883025e-13
2.36542052957573e-11
2.70011014782568e-11
1.76526210904113e-12
2.46728158911559e-11
1.67074352736795e-12
2.35468984627354e-11
1.84608105656362e-13
6.00074621422803e-12
-1.20259148497449e-12
-4.9112694344649e-12
-2.05223664315043e-12
-8.52004831576174e-12
-2.39644366277767e-12
-8.19604225794703e-12
-2.41301034212963e-12
-6.69159436586652e-12
-2.25343715924714e-12
-5.10937563272467e-12
-2.01698034032562e-12
-3.80919171013126e-12
-1.75993688733226e-12
-2.82127345052304e-12
-1.51141419217538e-12
-2.09422033896638e-12
-1.28445621452281e-12
-1.56306714151379e-12
-1.083356922438e-12
-1.17380453600162e-12
-9.07929419133699e-13
-8.8572242053478e-13
-7.55927830567855e-13
-6.69683581515791e-13
-6.2437459281788e-13
-5.05322843554091e-13
-5.10199417539634e-13
-3.78569780119151e-13
-4.1054594819341e-13
-2.79737006405397e-13
-3.22861815781356e-13
-2.02139611629892e-13
-2.44908475786087e-13
-1.41119893876798e-13
-1.74726827282605e-13
-9.34265990757327e-14
-1.10577426116518e-13
-5.6790360105964e-14
-5.0905027917668e-14
-2.96251095039617e-14
5.72733472014163e-15
-1.086855744166e-14
6.06677160258666e-14
1.33383061182283e-16
1.15219700945449e-13
3.70048034516796e-15
1.70684313731878e-13
-1.56995937567535e-16
2.28401972559924e-13
-1.17327011583278e-14
2.89783502689676e-13
-3.16527235721527e-14
3.56370325005583e-13
-6.09734688773625e-14
4.29864890919662e-13
-1.01231822662783e-13
5.12198107170215e-13
-1.54705261481785e-13
6.05576028517482e-13
-2.24586605722466e-13
7.12501371775261e-13
-3.15554891898407e-13
8.35777621806152e-13
-4.34344332623948e-13
9.78399461667849e-13
-5.90647935258028e-13
1.14326916768317e-12
-7.98530036257812e-13
1.33253458432538e-12
-1.07832578509283e-12
1.54628272861681e-12
-1.4591939044244e-12
1.78007040087061e-12
-1.98197221350618e-12
2.02067729898992e-12
-2.70102467004026e-12
2.23868046975777e-12
-3.68238173224238e-12
2.37730456636901e-12
-4.98136525870539e-12
2.33692878876993e-12
-6.57934828986249e-12
1.96735987592439e-12
-8.14438000062034e-12
1.09695130163699e-12
-8.61055703386127e-12
-2.93807162250957e-13
-5.19515896889041e-12
-1.74896269782774e-12
5.70954875061331e-12
-1.78886832777101e-12
2.37280115521481e-11
2.52326079315512e-11
2.16733894815021e-12
2.2537085888763e-11
2.74501617806784e-12
2.30088401386892e-11
1.48236225397891e-12
7.30186071076469e-12
-5.35771224754854e-16
-3.39184257365817e-12
-1.08894252120641e-12
-7.39684834290032e-12
-1.68313486109781e-12
-7.5683907344025e-12
-1.91158425880375e-12
-6.43067013866456e-12
-1.91338122381817e-12
-5.075844478541e-12
-1.79371603694309e-12
-3.89770717624645e-12
-1.61881695629572e-12
-2.96551128015945e-12
-1.4273268347737e-12
-2.25547870232306e-12
-1.239780976412e-12
-1.72077649658093e-12
-1.06596293304389e-12
-1.31815793841603e-12
-9.09522461375154e-13
-1.01305327123051e-12
-7.70839389066857e-13
-7.79595279218876e-13
-6.48706008176994e-13
-5.99007811960365e-13
-5.41244179284943e-13
-4.5788735650186e-13
-4.46387034710692e-13
-3.4673490348812e-13
-3.62126769631408e-13
-2.58804808076788e-13
-2.86581729911755e-13
-1.89312748651127e-13
-2.18050608195661e-13
-1.34825895988976e-13
-1.54974545429141e-13
-9.29334351982832e-14
-9.59316888365267e-14
-6.19121752552375e-14
-3.95908536667101e-14
-4.06102163415515e-14
1.53039598563467e-14
-2.82986579778571e-14
6.99808975317313e-14
-2.46310342828186e-14
1.25657080241612e-13
-2.95874806037228e-14
1.83584220255079e-13
-4.34963904504804e-14
2.45069894336826e-13
-6.70405247103668e-14
3.1151493233394e-13
-1.01371262777627e-13
3.84447817173594e-13
-1.48152506603367e-13
4.65532954386926e-13
-2.09797600663248e-13
5.56613459270013e-13
-2.89677568907678e-13
6.59647703858831e-13
-3.92586566542947e-13
7.76637780712258e-13
-5.25301339007765e-13
9.09382508348605e-13
-6.97310796760496e-13
1.05899846865148e-12
-9.21997340531922e-13
1.22498373914845e-12
-1.21807602816635e-12
1.40355042871829e-12
-1.61142224120257e-12
1.58470448783214e-12
-2.13666750771268e-12
1.74760751342768e-12
-2.8373360813673e-12
1.85308854502543e-12
-3.76113122465885e-12
1.83408193043702e-12
-4.93548147287461e-12
1.58440529470484e-12
-6.30261934431627e-12
9.65161332935441e-13
-7.49776764638942e-12
-1.47768424043838e-13
-7.46952160637995e-12
-1.64284752801345e-12
-3.67050904949813e-12
-2.88324265204917e-12
6.98090228240357e-12
-2.23481258643394e-12
2.31085907340071e-11
2.30150156441154e-11
2.12241261611718e-12
2.04421578757487e-11
2.95115484914548e-12
2.22135528555152e-11
1.95572498729388e-12
8.32914934762672e-12
5.9233377501424e-13
-1.99837213429283e-12
-5.1080289685916e-13
-6.26521729686134e-12
-1.18876321776037e-12
-6.86317864467035e-12
-1.52119945871115e-12
-6.07190365712547e-12
-1.62006551876448e-12
-4.95133615539802e-12
-1.58093485046957e-12
-3.91173171430736e-12
-1.46878211063112e-12
-3.0530019736568e-12
-1.32455189530653e-12
-2.37543632793624e-12
-1.17194821853441e-12
-1.84946617838989e-12
-1.02375841791395e-12
-1.44277258790158e-12
-8.86085946921069e-13
-1.12747669771882e-12
-7.61205357558856e-13
-8.81539798355376e-13
-6.49290452520131e-13
-6.88286847294471e-13
-5.4946311446649e-13
-5.35362705365501e-13
-4.60364774247609e-13
-4.13748215333073e-13
-3.80488519692086e-13
-3.16843784407748e-13
-3.08314407246609e-13
-2.39877796979955e-13
-2.42391176797304e-13
-1.79347364785058e-13
-1.81357981943421e-13
-1.32752327265624e-13
-1.23932993076983e-13
-9.82894230472225e-14
-6.89047803189503e-14
-7.47380140471951e-14
-1.51117070404729e-14
-6.13189541794058e-14
3.85783377914283e-14
-5.76588699521603e-14
9.32942002003588e-14
-6.37334634309116e-14
1.50182505149898e-13
-7.98916929293378e-14
2.10441978582816e-13
-1.0686897453179e-13
2.75321059658941e-13
-1.45866049867771e-13
3.46161137846122e-13
-1.98640614391166e-13
4.24362130979758e-13
-2.67665084272468e-13
5.11411817772325e-13
-3.56397610018838e-13
6.08766631711499e-13
-4.69600212511851e-13
7.17707897380856e-13
-6.13874848102064e-13
8.39037153481006e-13
-7.98229461212689e-13
9.72473749537591e-13
-1.03496477640441e-12
1.1156197520476e-12
-1.3406779511833e-12
1.26220418159918e-12
-1.73737269152454e-12
1.39919828867806e-12
-2.25292409606808e-12
1.50252605753953e-12
-2.91981476806487e-12
1.53062516118389e-12
-3.76826846495609e-12
1.41755777693202e-12
-4.80134434589726e-12
1.06656649286207e-12
-5.93043643228132e-12
3.6549547850642e-13
-6.77527048789392e-12
-7.61943438453235e-13
-6.32004603658617e-12
-2.13990415629015e-12
-2.26922762498066e-12
-3.11781206052069e-12
7.98329654038629e-12
-2.21199274428838e-12
2.22255783063091e-11
2.08160298644621e-11
1.85728823330405e-12
1.86077438545301e-11
2.68655351122662e-12
2.14111907730582e-11
1.94795433999748e-12
9.09297169989227e-12
8.02377888272874e-13
-8.29158065605818e-13
-1.93571324942878e-13
-5.24702946995731e-12
-8.55323681096268e-13
-6.18030177552542e-12
-1.22096491188685e-12
-5.6859696802943e-12
-1.37128625539677e-12
-4.78134188172953e-12
-1.3848722006728e-12
-3.87895263725362e-12
-1.31925063422892e-12
-3.0998278744059e-12
-1.21319084538235e-12
-2.46304987863286e-12
-1.09066907039273e-12
-1.95386582077514e-12
-9.65679139362225e-13
-1.549950136389e-12
-8.45714477365642e-13
-1.2299286106752e-12
-7.34320198619292e-13
-9.75711194716215e-13
-6.32714168887235e-13
-7.72949346145919e-13
-5.4082463257758e-13
-6.10574306888757e-13
-4.57909561820964e-13
-4.80235826945727e-13
-3.8290178171966e-13
-3.75657319524461e-13
-3.14625473135366e-13
-2.92174552453001e-13
-2.51868902187874e-13
-2.26319533536429e-13
-1.93464476051768e-13
-1.75548640693243e-13
-1.38274706607395e-13
-1.38027710503702e-13
-8.52098650200507e-14
-1.12489670065664e-13
-3.32136389152818e-14
-9.81222214545448e-14
1.87501953613416e-14
-9.45322713917183e-14
7.17179477090799e-14
-1.01698019219777e-13
1.26729907585694e-13
-1.19971936906403e-13
1.84866545018494e-13
-1.50130904760672e-13
2.47227438223296e-13
-1.93396188664269e-13
3.14964632661641e-13
-2.51576904378656e-13
3.89235286769852e-13
-3.27151875573383e-13
4.71182138007496e-13
-4.23564621098863e-13
5.61815095865751e-13
-5.45443800259865e-13
6.61804459260717e-13
-6.99051712927515e-13
7.71140165839343e-13
-8.92715271985212e-13
8.8849950595961e-13
-1.13742368576704e-12
1.01021260784939e-12
-1.44742624650933e-12
1.12860441472523e-12
-1.8407235228439e-12
1.22943884931532e-12
-2.33863171035647e-12
1.28835275543244e-12
-2.96351286554045e-12
1.2659709960356e-12
-3.73058703803148e-12
1.1038582572384e-12
-4.6238616324639e-12
7.22365998850793e-13
-5.53350397752219e-12
4.05637702521126e-14
-6.07787021535562e-12
-9.76671459164928e-13
-5.28672764421884e-12
-2.13473232552147e-12
-1.09400028830937e-12
-2.85676858829958e-12
8.72352916945135e-12
-1.95126925430953e-12
2.13368076516922e-11
1.88740187113672e-11
1.52041785723724e-12
1.71047111571628e-11
2.23814017001382e-12
2.07128420533289e-11
1.71744074850593e-12
9.63126727163577e-12
8.08553181026296e-13
9.60637412032598e-14
-3.2969005740504e-14
-4.39028944062814e-12
-6.29462231003205e-13
-5.56951201366863e-12
-9.87717800728329e-13
-5.31411774602945e-12
-1.16010885304848e-12
-4.59587883904333e-12
-1.20666046495345e-12
-3.81973732916286e-12
-1.17500651140685e-12
-3.11915955925056e-12
-1.09944545125194e-12
-2.52659410689208e-12
-1.00250956891566e-12
-2.03907285526922e-12
-8.9819708144414e-13
-1.64281303585223e-12
-7.9462301785176e-13
-1.32232648973514e-12
-6.96114795174298e-13
-1.0633098075184e-12
-6.04636938338757e-13
-8.53776180840117e-13
-5.20746557724677e-13
-6.8406069017109e-13
-4.44213275567869e-13
-5.46598810520195e-13
-3.74360307544213e-13
-4.35557377972447e-13
-3.10316269455565e-13
-3.46466473929558e-13
-2.51103541049482e-13
-2.75962920352951e-13
-1.95731629046477e-13
-2.2151581795834e-13
-1.43210769552141e-13
-1.81290122903078e-13
-9.25708974428382e-14
-1.53999846725497e-13
-4.28575963277915e-14
-1.38817417456666e-13
6.86599434413008e-15
-1.35333571926182e-13
5.75345190349675e-14
-1.43524539252629e-13
1.10088574471605e-13
-1.63749954113347e-13
1.65483530704122e-13
-1.96802397817095e-13
2.24682072534499e-13
-2.43911346078358e-13
2.88646111709147e-13
-3.06885234561889e-13
3.58307446506465e-13
-3.88172884446659e-13
4.34501531870147e-13
-4.91122302114786e-13
5.1784702862215e-13
-6.20144820559477e-13
6.08508715770218e-13
-7.81048767353696e-13
7.05841071595722e-13
-9.81351502449916e-13
8.07781251122675e-13
-1.23062490841185e-12
9.09880993512569e-13
-1.54073394713603e-12
1.00385022869718e-12
-1.92583959755992e-12
1.075457199497e-12
-2.40131987365745e-12
1.1018156007366e-12
-2.98088927949441e-12
1.04809593259758e-12
-3.66783582071926e-12
8.65920871131839e-13
-4.43262841855943e-12
4.94484372301661e-13
-5.15299705936655e-12
-1.18453978825456e-13
-5.45578832222779e-12
-9.76804921177542e-13
-4.41888702099558e-12
-1.89376157314034e-12
-1.66691064118912e-13
-2.39652193589711e-12
9.23741352238163e-12
-1.60772956423332e-12
2.05580308425831e-11
1.72711889800398e-11
1.19291347520987e-12
1.59238142340021e-11
1.77143369431868e-12
2.0146622876156e-11
1.42060520472046e-12
9.99282547580234e-12
7.2542127490764e-13
8.01035183821232e-13
4.18801299689281e-14
-3.69780365649674e-12
-4.72232644117587e-13
-5.04717944936399e-12
-8.02786892065705e-13
-4.97590896202292e-12
-9.79495399132572e-13
-4.41194543443429e-12
-1.04547612244323e-12
-3.74687164749985e-12
-1.03831079948009e-12
-3.11972973710201e-12
-9.86983807310826e-13
-2.57159152058263e-12
-9.11688850066645e-13
-2.10829446887472e-12
-8.25686308269512e-13
-1.72299426894462e-12
-7.37169575119163e-13
-1.40527234913905e-12
-6.5086434987275e-13
-1.14429035801865e-12
-5.69234331854995e-13
-9.30321694237917e-13
-4.93313114700631e-13
-7.5512747440829e-13
-4.23273596279099e-13
-6.12002276751776e-13
-3.5878144630506e-13
-4.95616977592461e-13
-2.992247238475e-13
-4.01778535593319e-13
-2.4384769986885e-13
-3.2726598509498e-13
-1.91825204599279e-13
-2.69618091521976e-13
-1.42307023896279e-13
-2.2702464518246e-13
-9.44438250973053e-14
-1.98199533195693e-13
-4.73861051634746e-14
-1.82315545946075e-13
-2.94279957939098e-16
-1.7895460039948e-13
4.76672421131324e-14
-1.88089139855081e-13
9.73375662113254e-14
-2.10084337854475e-13
1.49548031950709e-13
-2.45724945309409e-13
2.05128372060805e-13
-2.96240136163796e-13
2.64864779285683e-13
-3.63395150771097e-13
3.29482168829835e-13
-4.49578011413607e-13
3.99544833308957e-13
-5.57975791733002e-13
4.7533459852739e-13
-6.92718585382402e-13
5.56613624336959e-13
-8.59094415183302e-13
6.42264254974156e-13
-1.06374171912359e-12
7.2973122067281e-13
-1.31479579621912e-12
8.14173127175545e-13
-1.62183685410542e-12
8.8724245009363e-13
-1.99552215981155e-12
9.35460847614542e-13
-2.44610429896921e-12
9.38342060078662e-13
-2.98029738844286e-12
8.66471997618252e-13
-3.59247316929789e-12
6.81734912535588e-13
-4.24441076329579e-12
3.40555812977552e-13
-4.8083738516346e-12
-1.86332414116085e-13
-4.92545451748421e-12
-8.81910696959671e-13
-3.71964574976968e-12
-1.58018759342823e-12
5.35880791162424e-13
-1.91092814678499e-12
9.5730611677278e-12
-1.26852187982186e-12
1.99196797886246e-11
1.60040252146042e-11
9.10715174985929e-13
1.50195723311934e-11
1.36197704617372e-12
1.97005269873307e-11
1.13551199825579e-12
1.02230657088889e-11
6.15690186569896e-13
1.32408282479215e-12
7.33070449895413e-14
-3.1527170930694e-12
-3.5829772840632e-13
-4.6133730264056e-12
-6.52858026003431e-13
-4.67956040445216e-12
-8.23667132878434e-13
-4.23967345507513e-12
-8.99905247492705e-13
-3.66943690356086e-12
-9.10095187504627e-13
-3.10857998865807e-12
-8.77910227949096e-13
-2.60304192484161e-12
-8.2084156820742e-13
-2.16485293930805e-12
-7.5098708966101e-13
-1.79256444448628e-12
-6.76237910054772e-13
-1.47996483477743e-12
-6.01434058497354e-13
-1.2192633922486e-12
-5.29330559073685e-13
-1.00281569623437e-12
-4.61294860568054e-13
-8.23766512099504e-13
-3.97815353051708e-13
-6.76287561888842e-13
-3.38838638435381e-13
-5.55588333949985e-13
-2.83980437149974e-13
-4.57805312817202e-13
-2.32680028216168e-13
-3.79893713275316e-13
-1.8426812077101e-13
-3.19499624900933e-13
-1.38029892229245e-13
-2.74858841227013e-13
-9.32305250293449e-14
-2.44705237341467e-13
-4.91249942292425e-14
-2.28222905830001e-13
-4.97237840364239e-15
-2.24990152441262e-13
3.99661777722857e-14
-2.34978566210246e-13
8.64278061834717e-14
-2.58552065521725e-13
1.35127885406654e-13
-2.96474421660382e-13
1.86761433063423e-13
-3.49955632559424e-13
2.4195957674926e-13
-4.20697049035685e-13
3.01252869768666e-13
-5.10987126446877e-13
3.6497853420331e-13
-6.23820104360809e-13
4.33140990281443e-13
-7.62993165859893e-13
5.05188118332419e-13
-9.33238709140015e-13
5.79672437996524e-13
-1.14030074610642e-12
6.53756795164638e-13
-1.39092564653937e-12
7.2249411433537e-13
-1.69258603288299e-12
7.77860693384196e-13
-2.05286629733362e-12
8.07570975055739e-13
-2.47776276697088e-12
7.93907519742937e-13
-2.96856673240182e-12
7.12880649058187e-13
-3.51339052673144e-12
5.35632705417791e-13
-4.06915702884388e-12
2.32817029875672e-13
-4.50763789022569e-12
-2.08147585135691e-13
-4.4866420252518e-12
-7.58136700553615e-13
-3.17172707260942e-12
-1.27657815118882e-12
1.0526448786599e-12
-1.48112213896712e-12
9.77625922591852e-12
-9.73582736972831e-13
1.94102951140535e-11
1.50280934445246e-11
6.83718066192306e-13
1.43375136020913e-11
1.03214962511746e-12
1.93513022449528e-11
8.92536929315466e-13
1.03608681999994e-11
5.09095758659038e-13
1.70549882606259e-12
8.46081088606698e-14
-2.73050718214819e-12
-2.71944866883652e-13
-4.25940421505581e-12
-5.2874008258665e-13
-4.42562966922983e-12
-6.88078064264702e-13
-4.08343509591698e-12
-7.68374902520748e-13
-3.59244385847592e-12
-7.90533245270586e-13
-3.08991718303704e-12
-7.73348942657807e-13
-2.62391377037265e-12
-7.31562864162682e-13
-2.21052448701814e-12
-6.75895225627398e-13
-1.85232132781486e-12
-6.13685517604186e-13
-1.54647200855097e-12
-5.49673694262638e-13
-1.28778010196094e-12
-4.86738227162574e-13
-1.07046103004417e-12
-4.26460248778395e-13
-8.88951728773516e-13
-3.69561287601137e-13
-7.38281439357709e-13
-3.16208341029078e-13
-6.14211593088426e-13
-2.66214780680084e-13
-5.13231320768696e-13
-2.19188007140006e-13
-4.32499660747965e-13
-1.74606749665334e-13
-3.69791921523113e-13
-1.31879943717817e-13
-3.23413187966283e-13
-9.03830307814468e-14
-2.92131635540755e-13
-4.94743970375685e-14
-2.75148238005059e-13
-8.50806940839478e-15
-2.72047681973277e-13
3.31589136233625e-14
-2.82797972732196e-13
7.61567461103981e-14
-3.07752156925221e-13
1.21097512257178e-13
-3.47656333444893e-13
1.68545504746333e-13
-4.03673537008908e-13
2.18992871249798e-13
-4.77433395259552e-13
2.7279718995516e-13
-5.71090575210294e-13
3.30103615580251e-13
-6.87427198559499e-13
3.90695886134499e-13
-8.29879746333231e-13
4.53792859101417e-13
-1.00261642899031e-12
5.17738947487584e-13
-1.21050777873896e-12
5.79581365431714e-13
-1.45900540877269e-12
6.34486153147342e-13
-1.75370200492369e-12