/*--------------------------------*- C++ -*----------------------------------*\
  =========                 |
  \\      /  F ield         | OpenFOAM: The Open Source CFD Toolbox
   \\    /   O peration     | Website:  https://openfoam.org
    \\  /    A nd           | Version:  10
     \\/     M anipulation  |
\*---------------------------------------------------------------------------*/
FoamFile
{
    format      ascii;
    class       volScalarField;
    location    "7.6";
    object      rho;
}
// * * * * * * * * * * * * * * * * * * * * * * * * * * * * * * * * * * * * * //

dimensions      [1 -3 0 0 0 0 0];

internalField   nonuniform List<scalar> 
2500
(
1.14545364534265
1.14546696946962
1.14550548797556
1.14553547654406
1.14555485766282
1.14556656995803
1.1455734100934
1.14557729619999
1.14557943419991
1.14558056426056
1.14558114296582
1.14558142639435
1.14558155978624
1.14558162229284
1.14558165138005
1.14558166605214
1.14558167253892
1.14558167686892
1.14558168046264
1.14558168278477
1.14558168463325
1.14558168616303
1.14558168738953
1.14558168814896
1.14558168890758
1.14558168950465
1.14558168970204
1.14558168970949
1.14558168948235
1.14558168898038
1.14558168811226
1.14558168647202
1.14558168424885
1.14558168055381
1.14558167370069
1.14558165965253
1.14558162946392
1.14558156460593
1.14558142323211
1.14558113064124
1.14558054172915
1.14557939813811
1.14557725726516
1.14557338647907
1.14556658146416
1.14555492969707
1.14553555664449
1.14550540410359
1.14546665876192
1.14545401060625
1.14851115292165
1.14859710674572
1.14871015225499
1.14879563468427
1.14885169098821
1.14888634422363
1.14890711210859
1.14891922665127
1.14892607323625
1.14892980182636
1.14893175524066
1.14893273701716
1.14893321054136
1.14893343092802
1.14893353017805
1.14893357404803
1.14893359268165
1.14893360119573
1.14893360569555
1.14893360815607
1.14893360979868
1.14893361106744
1.1489336120641
1.14893361274193
1.14893361334079
1.14893361381798
1.1489336140472
1.14893361413207
1.14893361405842
1.14893361371972
1.1489336128897
1.14893361096405
1.14893360688784
1.1489335978645
1.1489335774074
1.1489335304546
1.14893342440981
1.1489331918328
1.14893269745047
1.14893168773396
1.14892970187442
1.14892594370053
1.14891909293931
1.14890702583908
1.14888637222276
1.14885186001319
1.14879575913386
1.14870970595211
1.14859580706514
1.14851270289702
1.15169643663532
1.15185459400172
1.1520200653019
1.15214062730462
1.15221882633332
1.15226692695014
1.15229568005829
1.15231243830096
1.15232191581212
1.15232708860793
1.15232980509416
1.15233117480081
1.15233183766939
1.1523321462033
1.15233228458315
1.15233234468786
1.15233236986233
1.15233238048411
1.15233238525771
1.15233238754071
1.15233238886185
1.15233238981314
1.15233239054974
1.1523323910669
1.1523323914925
1.1523323918368
1.15233239203943
1.15233239215816
1.15233239219355
1.1523323920011
1.15233239128635
1.15233238932274
1.15233238438821
1.15233237262393
1.15233234494258
1.15233228022372
1.15233213286817
1.15233180867658
1.15233112074514
1.15232971691599
1.15232696063187
1.15232175303086
1.15231227029656
1.15229556769492
1.15226694460736
1.15221896770009
1.15214056193458
1.15201892413918
1.15185165022995
1.151696082419
1.15463301208036
1.15483265869127
1.1550126011277
1.15513850489441
1.1552180024475
1.15526576628504
1.15529371483682
1.15530970262824
1.15531860245279
1.15532339616594
1.15532588523711
1.15532712823198
1.15532772472257
1.15532800004491
1.15532812241897
1.15532817490982
1.15532819659443
1.15532820543132
1.15532820913269
1.15532821076765
1.15532821163833
1.15532821225102
1.15532821273541
1.15532821308189
1.1553282133532
1.15532821357774
1.15532821373205
1.15532821385277
1.15532821393864
1.15532821391472
1.15532821352101
1.15532821210371
1.15532820811448
1.15532819825825
1.15532817466869
1.15532811866625
1.15532798954849
1.15532770233805
1.15532708669687
1.15532581674411
1.15532329471394
1.15531846963126
1.15530955797587
1.15529360153262
1.15526573059823
1.15521798675199
1.15513807514494
1.15501066162497
1.15482798666147
1.15462878737064
1.15707381166153
1.1572770871322
1.15744222881867
1.15755331417708
1.15762146217776
1.15766137729454
1.15768420581821
1.15769701295881
1.15770402998531
1.15770776211239
1.15770968053068
1.15771063090535
1.15771108402726
1.15771129197467
1.15771138386252
1.15771142296485
1.15771143894508
1.15771144529467
1.15771144781345
1.15771144883849
1.15771144933286
1.15771144967368
1.15771144995626
1.15771145016111
1.1577114503133
1.15771145044362
1.15771145054764
1.15771145064961
1.15771145074914
1.15771145079958
1.15771145066185
1.15771144982885
1.1577114470399
1.15771143995099
1.15771142280985
1.15771138164035
1.15771128581317
1.15771107084894
1.15771060626404
1.15770963927484
1.15770769962962
1.15770394567695
1.15769691662425
1.1576841206389
1.15766131889984
1.15762133573355
1.15755264750462
1.15743983852412
1.15727132717499
1.15706604641842
1.15892567037552
1.15910342918803
1.15923681386894
1.15932326956274
1.15937479898536
1.15940421603524
1.15942066036076
1.15942971093108
1.15943459526979
1.15943716336212
1.15943847213163
1.15943911640677
1.15943942216285
1.15943956196206
1.15943962351082
1.15943964956193
1.15943966011209
1.15943966421251
1.15943966575899
1.15943966633085
1.15943966656654
1.15943966672162
1.15943966686405
1.15943966696931
1.15943966704139
1.15943966710724
1.15943966717041
1.15943966724629
1.15943966733576
1.15943966740404
1.15943966740561
1.15943966700641
1.15943966526952
1.15943966069403
1.15943964954679
1.15943962251106
1.1594395591195
1.1594394160164
1.15943910477324
1.15943845232628
1.15943713267701
1.15943455269227
1.15942966054104
1.15942061211732
1.15940416698695
1.15937464509045
1.15932256971597
1.15923444271981
1.15909755223278
1.15891607540891
1.16022022870096
1.16035817177219
1.1604552184376
1.16051598280584
1.16055119580217
1.16057079877268
1.16058151432633
1.16058730336367
1.16059038310949
1.16059198556625
1.16059279628814
1.16059319344622
1.16059338133619
1.16059346705999
1.16059350472178
1.1605935206027
1.16059352698285
1.16059352940988
1.16059353027902
1.16059353056447
1.16059353065167
1.160593530699
1.16059353075593
1.1605935308005
1.16059353082533
1.16059353085263
1.16059353088741
1.16059353093849
1.16059353100766
1.16059353107479
1.16059353111855
1.16059353096846
1.16059352999896
1.16059352729264
1.16059352065027
1.16059350439921
1.16059346608116
1.16059337918677
1.16059318931167
1.16059278910911
1.16059197416128
1.16059036693351
1.16058728419859
1.16058149608367
1.1605707726928
1.16055107201295
1.16051539959166
1.16045322044686
1.1603530087697
1.1602107264221
1.16106044389321
1.16115737902247
1.16122197161848
1.16126113600657
1.16128322706209
1.16129522902236
1.16130164832276
1.16130505445499
1.1613068419866
1.16130776324694
1.16130822644845
1.16130845252616
1.16130855927388
1.16130860793062
1.16130862928646
1.16130863826763
1.16130864184944
1.16130864318326
1.16130864363302
1.16130864375601
1.16130864377815
1.161308643778
1.16130864378839
1.16130864380179
1.16130864380178
1.16130864380857
1.16130864382562
1.16130864385712
1.16130864390497
1.161308643959
1.16130864400515
1.16130864397133
1.16130864347864
1.16130864199665
1.16130863831654
1.16130862924129
1.16130860775459
1.16130855888186
1.16130845174833
1.1613082250438
1.16130776091981
1.16130683873745
1.16130505148344
1.16130164773857
1.1612952235923
1.16128315171849
1.16126072608768
1.1612204951852
1.16115336864134
1.16105238377046
1.16157006414784
1.16163261876961
1.16167239641319
1.16169580497242
1.16170867297216
1.161715501974
1.16171907815186
1.16172094280449
1.16172190867251
1.16172240209071
1.16172264885586
1.16172276896744
1.16172282562635
1.1617228514514
1.16172286278448
1.16172286754137
1.16172286942491
1.16172287011094
1.16172287032211
1.1617228703602
1.16172287035489
1.16172287034401
1.16172287034052
1.16172287033989
1.16172287033467
1.1617228703349
1.16172287034276
1.16172287036039
1.16172287039067
1.16172287042859
1.16172287046673
1.16172287047207
1.1617228702403
1.16172286948484
1.16172286756944
1.16172286281227
1.16172285151708
1.16172282578246
1.16172276926524
1.16172264935518
1.16172240286831
1.16172191002951
1.16172094584516
1.16171908474132
1.16171550846721
1.1617086386731
1.16169555482088
1.161671419334
1.16162981205108
1.16156400248563
1.16186056868902
1.1618980286241
1.16192089466984
1.16193398237692
1.16194100287166
1.16194464566187
1.16194651463215
1.16194747265241
1.16194796266348
1.16194821092597
1.16194833451015
1.1619483945467
1.1619484228621
1.16194843577721
1.16194844144748
1.16194844382394
1.16194844475796
1.16194844508941
1.16194844517823
1.16194844518383
1.16194844517466
1.16194844516334
1.16194844515635
1.1619484451513
1.16194844514612
1.16194844514478
1.16194844514791
1.16194844515775
1.16194844517559
1.16194844519952
1.16194844522586
1.16194844523861
1.16194844513812
1.16194844477631
1.16194844383273
1.1619484414739
1.1619484358633
1.16194842307395
1.16194839496862
1.16194833525577
1.16194821215733
1.16194796474371
1.16194747656918
1.16194652218184
1.16194465605976
1.16194099381723
1.16193384807764
1.1619203069873
1.16189623363879
1.16185643970908
1.16201697938983
1.1620379664402
1.16205032431222
1.16205721709025
1.16206082967736
1.16206266416349
1.16206358686102
1.16206405199901
1.16206428699211
1.16206440511784
1.16206446367994
1.16206449209156
1.16206450549769
1.16206451162018
1.16206451431063
1.16206451543681
1.16206451587605
1.16206451602618
1.16206451606034
1.16206451605783
1.16206451604962
1.16206451604112
1.16206451603509
1.16206451603037
1.16206451602663
1.16206451602509
1.16206451602628
1.16206451603164
1.16206451604151
1.16206451605538
1.16206451607141
1.16206451608172
1.1620645160415
1.16206451587746
1.16206451543495
1.16206451432186
1.16206451167192
1.1620645056346
1.16206449237353
1.16206446419204
1.16206440599365
1.16206428853005
1.16206405497484
1.16206359280546
1.16206267375369
1.16206083219175
1.16205715361522
1.16204999957791
1.16203690594126
1.16201439443975
1.16209686707268
1.16210794062193
1.16211425698935
1.16211769637214
1.16211945982634
1.16212033701503
1.16212076980436
1.16212098443007
1.16212109155367
1.16212114499568
1.16212117139297
1.16212118418935
1.1621211902333
1.16212119299826
1.16212119421478
1.16212119472341
1.16212119492021
1.16212119498463
1.16212119499648
1.16212119499293
1.16212119498724
1.16212119498183
1.16212119497778
1.16212119497456
1.16212119497224
1.16212119497111
1.16212119497158
1.16212119497439
1.16212119497955
1.16212119498705
1.16212119499594
1.16212119500237
1.16212119498747
1.16212119491662
1.16212119471813
1.16212119421577
1.16212119301955
1.16212119029809
1.16212118432927
1.16212117165516
1.16212114546311
1.16212109242763
1.16212098624706
1.16212077369883
1.16212034406578
1.1621194655822
1.16211767039289
1.16211409082019
1.16210735674353
1.16209536358393
1.16213572185184
1.16214125487609
1.16214432338533
1.16214595734748
1.16214677790988
1.16214717810311
1.16214737190152
1.16214746647226
1.16214751311104
1.16214753620701
1.16214754757693
1.16214755308646
1.16214755569236
1.16214755688696
1.16214755741332
1.16214755763315
1.16214755771751
1.16214755774372
1.16214755774724
1.16214755774473
1.16214755774135
1.16214755773827
1.1621475577359
1.16214755773402
1.16214755773274
1.16214755773207
1.16214755773228
1.16214755773368
1.16214755773626
1.16214755774007
1.16214755774467
1.16214755774825
1.16214755774314
1.16214755771375
1.16214755762825
1.1621475574105
1.16214755689215
1.16214755571545
1.16214755314087
1.16214754768393
1.16214753641005
1.16214751352904
1.16214746743824
1.16214737416163
1.16214718260609
1.162146783147
1.16214594864707
1.16214424418244
1.1621409531765
1.16213490262051
1.16215377554958
1.162156405841
1.16215782873372
1.16215857088178
1.1621589363595
1.16215911128006
1.16215919447162
1.16215923442954
1.16215925390189
1.16215926347495
1.16215926817306
1.1621592704495
1.16215927152809
1.1621592720237
1.16215927224243
1.16215927233367
1.16215927236835
1.16215927237848
1.16215927237932
1.16215927237791
1.1621592723761
1.16215927237449
1.16215927237324
1.16215927237226
1.16215927237161
1.16215927237128
1.16215927237138
1.16215927237206
1.1621592723733
1.16215927237514
1.16215927237739
1.16215927237919
1.1621592723776
1.16215927236588
1.16215927233037
1.1621592722394
1.162159272023
1.1621592715331
1.16215927046467
1.16215926820619
1.16215926354602
1.16215925407447
1.16215923489251
1.16215919566952
1.16215911387591
1.16215894002081
1.16215856898585
1.16215779342914
1.16215625867016
1.16215335455815
1.16216180966533
1.1621630040765
1.16216363619108
1.16216395962846
1.1621641160034
1.1621641895158
1.1621642238737
1.16216424012133
1.16216424794591
1.16216425176507
1.16216425363391
1.16216425453962
1.16216425496963
1.16216425516772
1.16216425525529
1.16216425529178
1.16216425530549
1.16216425530928
1.1621642553094
1.16216425530865
1.16216425530776
1.16216425530699
1.16216425530639
1.16216425530592
1.16216425530562
1.16216425530548
1.16216425530554
1.16216425530586
1.16216425530644
1.1621642553073
1.16216425530835
1.16216425530921
1.16216425530878
1.16216425530425
1.16216425529001
1.16216425525328
1.16216425516596
1.16216425496893
1.16216425454087
1.16216425363921
1.16216425178261
1.16216424800705
1.16216424032534
1.16216422446439
1.16216419089625
1.16216411821426
1.16216395986278
1.16216362144188
1.16216293596573
1.16216160450633
1.16216523824158
1.16216575815497
1.16216602804398
1.16216616371933
1.16216622819314
1.1621662579909
1.16216627168583
1.16216627806405
1.16216628109975
1.1621662825709
1.16216628328876
1.16216628363681
1.16216628380242
1.16216628387892
1.1621662839128
1.1621662839269
1.16216628393213
1.1621662839335
1.16216628393348
1.16216628393312
1.16216628393272
1.16216628393238
1.16216628393211
1.16216628393191
1.16216628393179
1.16216628393175
1.16216628393179
1.16216628393195
1.16216628393222
1.16216628393261
1.16216628393308
1.16216628393348
1.16216628393339
1.16216628393171
1.16216628392619
1.16216628391183
1.1621662838777
1.16216628380094
1.1621662836349
1.16216628328659
1.16216628257145
1.16216628111752
1.1621662781479
1.16216627196039
1.16216625867783
1.16216622939975
1.16216616432739
1.1621660222683
1.16216572812249
1.16216514299084
1.16216663924589
1.16216685685188
1.16216696791127
1.16216702284156
1.16216704852729
1.16216706020868
1.16216706549164
1.16216706791573
1.16216706905606
1.16216706960474
1.16216706987174
1.16216707000126
1.16216707006303
1.16216707009164
1.16216707010433
1.16216707010961
1.16216707011154
1.16216707011203
1.162167070112
1.16216707011185
1.16216707011169
1.16216707011155
1.16216707011145
1.16216707011138
1.16216707011135
1.16216707011134
1.16216707011138
1.16216707011146
1.16216707011159
1.16216707011177
1.16216707011199
1.16216707011218
1.16216707011219
1.16216707011159
1.16216707010953
1.16216707010409
1.16216707009115
1.16216707006214
1.16216706999964
1.16216706986913
1.16216706960208
1.16216706905969
1.16216706794838
1.16216706561324
1.1621670605319
1.16216704913673
1.16216702331889
1.16216696579703
1.16216684418922
1.1621665969475
1.16216718256124
1.16216727037389
1.16216731452861
1.16216733604486
1.16216734595611
1.16216735039556
1.16216735237263
1.16216735326674
1.16216735368249
1.16216735388109
1.16216735397746
1.16216735402422
1.16216735404657
1.16216735405695
1.16216735406156
1.16216735406347
1.16216735406417
1.16216735406435
1.16216735406433
1.16216735406428
1.16216735406423
1.16216735406419
1.16216735406416
1.16216735406415
1.16216735406415
1.16216735406417
1.1621673540642
1.16216735406425
1.16216735406432
1.16216735406441
1.16216735406452
1.16216735406461
1.16216735406464
1.16216735406445
1.16216735406372
1.16216735406174
1.16216735405699
1.16216735404634
1.16216735402349
1.16216735397598
1.16216735387911
1.16216735368265
1.1621673532791
1.1621673524245
1.1621673505406
1.16216734624523
1.16216733633166
1.16216731381045
1.16216726525266
1.16216716453351
1.16216737627894
1.16216741052776
1.16216742752581
1.16216743569694
1.16216743940885
1.16216744104786
1.16216744176712
1.16216744208783
1.16216744223522
1.1621674423051
1.16216744233889
1.16216744235529
1.16216744236313
1.16216744236678
1.1621674423684
1.16216744236908
1.16216744236932
1.16216744236939
1.16216744236939
1.16216744236938
1.16216744236937
1.16216744236937
1.16216744236938
1.16216744236939
1.16216744236941
1.16216744236943
1.16216744236946
1.1621674423695
1.16216744236955
1.1621674423696
1.16216744236966
1.16216744236972
1.16216744236976
1.16216744236971
1.16216744236948
1.16216744236879
1.16216744236712
1.16216744236335
1.16216744235525
1.16216744233844
1.16216744230428
1.16216744223509
1.16216744209264
1.16216744178875
1.16216744111047
1.16216743953909
1.16216743584729
1.16216742730321
1.16216740853573
1.16216736888268
1.16216743234452
1.16216744528298
1.16216745163135
1.16216745464547
1.16216745599716
1.16216745658601
1.16216745684079
1.16216745695281
1.16216745700367
1.16216745702758
1.16216745703909
1.16216745704465
1.16216745704731
1.16216745704855
1.1621674570491
1.16216745704932
1.16216745704941
1.16216745704944
1.16216745704945
1.16216745704946
1.16216745704947
1.16216745704948
1.1621674570495
1.16216745704952
1.16216745704955
1.16216745704957
1.1621674570496
1.16216745704964
1.16216745704967
1.16216745704971
1.16216745704975
1.1621674570498
1.16216745704983
1.16216745704985
1.16216745704979
1.16216745704959
1.16216745704904
1.16216745704777
1.162167457045
1.16216745703925
1.16216745702756
1.16216745700387
1.16216745695496
1.16216745684983
1.1621674566123
1.16216745605342
1.16216745471767
1.16216745157091
1.16216744453615
1.16216742941594
1.16216743593555
1.16216744067926
1.16216744298337
1.16216744406501
1.1621674445443
1.16216744475044
1.1621674448384
1.16216744487651
1.16216744489358
1.16216744490151
1.16216744490529
1.1621674449071
1.16216744490796
1.16216744490835
1.16216744490852
1.16216744490859
1.16216744490862
1.16216744490864
1.16216744490865
1.16216744490866
1.16216744490868
1.1621674449087
1.16216744490873
1.16216744490875
1.16216744490878
1.16216744490881
1.16216744490884
1.16216744490887
1.1621674449089
1.16216744490893
1.16216744490897
1.162167444909
1.16216744490904
1.16216744490907
1.16216744490908
1.16216744490905
1.1621674449089
1.16216744490852
1.16216744490764
1.16216744490576
1.16216744490191
1.16216744489407
1.16216744487776
1.16216744484238
1.16216744476141
1.16216744456792
1.16216744409766
1.16216744297079
1.16216744040904
1.162167434814
1.16216742012022
1.16216742181111
1.16216742262495
1.16216742300301
1.16216742316866
1.162167423239
1.16216742326858
1.16216742328118
1.16216742328672
1.16216742328923
1.1621674232904
1.16216742329095
1.16216742329119
1.1621674232913
1.16216742329134
1.16216742329136
1.16216742329137
1.16216742329138
1.1621674232914
1.16216742329142
1.16216742329144
1.16216742329146
1.16216742329148
1.16216742329151
1.16216742329154
1.16216742329157
1.16216742329159
1.16216742329162
1.16216742329165
1.16216742329169
1.16216742329172
1.16216742329175
1.16216742329179
1.16216742329183
1.16216742329186
1.16216742329188
1.16216742329188
1.1621674232918
1.16216742329156
1.16216742329102
1.16216742328984
1.16216742328737
1.16216742328213
1.16216742327059
1.16216742324375
1.16216742317852
1.16216742301727
1.16216742262442
1.16216742171681
1.16216741970414
1.16216739732961
1.16216739791647
1.1621673981965
1.16216739832525
1.16216739838104
1.16216739840441
1.16216739841407
1.16216739841807
1.16216739841977
1.1621673984205
1.16216739842081
1.16216739842094
1.16216739842099
1.162167398421
1.16216739842101
1.16216739842101
1.16216739842101
1.16216739842102
1.16216739842104
1.16216739842105
1.16216739842108
1.1621673984211
1.16216739842112
1.16216739842115
1.16216739842118
1.16216739842121
1.16216739842123
1.16216739842126
1.16216739842129
1.16216739842132
1.16216739842135
1.16216739842139
1.16216739842142
1.16216739842146
1.1621673984215
1.16216739842155
1.16216739842158
1.16216739842161
1.16216739842159
1.16216739842148
1.16216739842118
1.16216739842049
1.16216739841892
1.16216739841532
1.16216739840671
1.16216739838533
1.16216739833149
1.1621673981981
1.16216739788493
1.16216739718001
1.16216737209824
1.16216737229682
1.16216737239066
1.16216737243332
1.16216737245158
1.16216737245909
1.16216737246211
1.16216737246329
1.16216737246375
1.16216737246391
1.16216737246396
1.16216737246396
1.16216737246394
1.16216737246393
1.16216737246392
1.16216737246392
1.16216737246392
1.16216737246393
1.16216737246394
1.16216737246396
1.16216737246398
1.16216737246401
1.16216737246403
1.16216737246406
1.16216737246409
1.16216737246411
1.16216737246414
1.16216737246417
1.1621673724642
1.16216737246423
1.16216737246426
1.16216737246429
1.16216737246433
1.16216737246437
1.16216737246441
1.16216737246445
1.16216737246451
1.16216737246456
1.16216737246461
1.16216737246464
1.16216737246462
1.16216737246449
1.1621673724641
1.16216737246308
1.16216737246045
1.16216737245369
1.16216737243624
1.16216737239219
1.16216737228695
1.16216737204626
1.16216734603418
1.16216734609973
1.16216734613026
1.16216734614391
1.16216734614965
1.16216734615194
1.16216734615281
1.1621673461531
1.16216734615317
1.16216734615316
1.16216734615313
1.16216734615309
1.16216734615306
1.16216734615304
1.16216734615303
1.16216734615303
1.16216734615303
1.16216734615304
1.16216734615306
1.16216734615308
1.1621673461531
1.16216734615312
1.16216734615315
1.16216734615317
1.1621673461532
1.16216734615323
1.16216734615325
1.16216734615328
1.16216734615331
1.16216734615334
1.16216734615337
1.1621673461534
1.16216734615344
1.16216734615347
1.16216734615351
1.16216734615356
1.16216734615361
1.16216734615368
1.16216734615374
1.16216734615381
1.16216734615387
1.16216734615391
1.16216734615388
1.16216734615366
1.16216734615295
1.16216734615094
1.16216734614551
1.16216734613146
1.16216734609711
1.16216734601694
1.16216731969276
1.16216731971385
1.16216731972337
1.16216731972748
1.16216731972915
1.16216731972977
1.16216731972996
1.16216731972998
1.16216731972994
1.16216731972989
1.16216731972984
1.1621673197298
1.16216731972977
1.16216731972975
1.16216731972974
1.16216731972974
1.16216731972975
1.16216731972976
1.16216731972978
1.1621673197298
1.16216731972982
1.16216731972984
1.16216731972986
1.16216731972989
1.16216731972992
1.16216731972994
1.16216731972997
1.16216731973
1.16216731973003
1.16216731973005
1.16216731973008
1.16216731973011
1.16216731973015
1.16216731973018
1.16216731973022
1.16216731973027
1.16216731973032
1.16216731973038
1.16216731973044
1.16216731973052
1.1621673197306
1.16216731973068
1.16216731973075
1.16216731973077
1.16216731973064
1.16216731973012
1.16216731972857
1.16216731972435
1.16216731971359
1.16216731968755
1.16216729326103
1.16216729326761
1.16216729327031
1.16216729327136
1.16216729327175
1.16216729327185
1.16216729327185
1.1621672932718
1.16216729327175
1.16216729327169
1.16216729327165
1.16216729327161
1.16216729327159
1.16216729327157
1.16216729327157
1.16216729327157
1.16216729327157
1.16216729327159
1.1621672932716
1.16216729327162
1.16216729327164
1.16216729327167
1.16216729327169
1.16216729327172
1.16216729327174
1.16216729327177
1.1621672932718
1.16216729327182
1.16216729327185
1.16216729327188
1.16216729327191
1.16216729327194
1.16216729327197
1.162167293272
1.16216729327204
1.16216729327208
1.16216729327213
1.16216729327218
1.16216729327224
1.16216729327231
1.16216729327239
1.16216729327248
1.16216729327256
1.16216729327264
1.16216729327267
1.1621672932726
1.16216729327226
1.16216729327118
1.16216729326808
1.16216729325987
1.16216726680052
1.16216726680247
1.16216726680302
1.16216726680312
1.16216726680312
1.16216726680308
1.16216726680303
1.16216726680298
1.16216726680293
1.16216726680288
1.16216726680285
1.16216726680282
1.1621672668028
1.16216726680279
1.16216726680279
1.16216726680279
1.1621672668028
1.16216726680282
1.16216726680283
1.16216726680285
1.16216726680288
1.1621672668029
1.16216726680292
1.16216726680295
1.16216726680298
1.162167266803
1.16216726680303
1.16216726680305
1.16216726680308
1.16216726680311
1.16216726680313
1.16216726680316
1.16216726680319
1.16216726680322
1.16216726680326
1.1621672668033
1.16216726680334
1.16216726680339
1.16216726680344
1.1621672668035
1.16216726680357
1.16216726680365
1.16216726680373
1.1621672668038
1.16216726680387
1.16216726680392
1.16216726680394
1.16216726680383
1.16216726680316
1.16216726680069
1.16216724033103
1.16216724033154
1.16216724033143
1.16216724033125
1.16216724033114
1.16216724033108
1.16216724033103
1.16216724033099
1.16216724033095
1.16216724033092
1.16216724033089
1.16216724033088
1.16216724033087
1.16216724033086
1.16216724033086
1.16216724033087
1.16216724033088
1.1621672403309
1.16216724033092
1.16216724033094
1.16216724033096
1.16216724033098
1.16216724033101
1.16216724033103
1.16216724033106
1.16216724033108
1.16216724033111
1.16216724033113
1.16216724033116
1.16216724033118
1.16216724033121
1.16216724033124
1.16216724033127
1.16216724033129
1.16216724033133
1.16216724033136
1.1621672403314
1.16216724033144
1.16216724033149
1.16216724033154
1.1621672403316
1.16216724033166
1.16216724033172
1.16216724033179
1.16216724033185
1.16216724033192
1.16216724033203
1.1621672403322
1.16216724033229
1.16216724033162
1.16216721385879
1.16216721385886
1.16216721385856
1.16216721385831
1.16216721385819
1.16216721385813
1.1621672138581
1.16216721385808
1.16216721385805
1.16216721385804
1.16216721385802
1.16216721385801
1.16216721385801
1.16216721385801
1.16216721385802
1.16216721385803
1.16216721385804
1.16216721385806
1.16216721385808
1.1621672138581
1.16216721385812
1.16216721385815
1.16216721385817
1.1621672138582
1.16216721385822
1.16216721385825
1.16216721385827
1.1621672138583
1.16216721385832
1.16216721385834
1.16216721385837
1.16216721385839
1.16216721385842
1.16216721385845
1.16216721385848
1.16216721385851
1.16216721385854
1.16216721385858
1.16216721385861
1.16216721385866
1.1621672138587
1.16216721385875
1.1621672138588
1.16216721385884
1.16216721385889
1.16216721385895
1.16216721385907
1.16216721385932
1.16216721385962
1.16216721385951
1.16216718738573
1.16216718738567
1.16216718738532
1.16216718738507
1.16216718738496
1.16216718738492
1.16216718738491
1.1621671873849
1.16216718738489
1.16216718738489
1.16216718738488
1.16216718738488
1.16216718738489
1.16216718738489
1.16216718738491
1.16216718738492
1.16216718738494
1.16216718738496
1.16216718738498
1.162167187385
1.16216718738502
1.16216718738505
1.16216718738507
1.1621671873851
1.16216718738512
1.16216718738514
1.16216718738517
1.16216718738519
1.16216718738522
1.16216718738524
1.16216718738526
1.16216718738529
1.16216718738531
1.16216718738534
1.16216718738536
1.16216718738539
1.16216718738542
1.16216718738544
1.16216718738548
1.16216718738551
1.16216718738554
1.16216718738558
1.16216718738561
1.16216718738564
1.16216718738566
1.16216718738571
1.16216718738582
1.16216718738606
1.16216718738642
1.16216718738647
1.16216716091241
1.16216716091233
1.16216716091198
1.16216716091174
1.16216716091165
1.16216716091163
1.16216716091164
1.16216716091165
1.16216716091166
1.16216716091166
1.16216716091167
1.16216716091168
1.16216716091169
1.1621671609117
1.16216716091172
1.16216716091174
1.16216716091176
1.16216716091178
1.1621671609118
1.16216716091182
1.16216716091185
1.16216716091187
1.1621671609119
1.16216716091192
1.16216716091195
1.16216716091197
1.16216716091199
1.16216716091202
1.16216716091204
1.16216716091206
1.16216716091208
1.16216716091211
1.16216716091213
1.16216716091215
1.16216716091217
1.16216716091219
1.16216716091222
1.16216716091224
1.16216716091226
1.16216716091229
1.16216716091231
1.16216716091233
1.16216716091234
1.16216716091235
1.16216716091236
1.16216716091238
1.16216716091247
1.16216716091271
1.16216716091307
1.16216716091316
1.16216713443903
1.16216713443895
1.16216713443861
1.16216713443839
1.16216713443832
1.16216713443832
1.16216713443835
1.16216713443838
1.1621671344384
1.16216713443842
1.16216713443844
1.16216713443846
1.16216713443847
1.16216713443849
1.16216713443851
1.16216713443853
1.16216713443856
1.16216713443858
1.1621671344386
1.16216713443863
1.16216713443865
1.16216713443868
1.1621671344387
1.16216713443873
1.16216713443875
1.16216713443877
1.1621671344388
1.16216713443882
1.16216713443884
1.16216713443886
1.16216713443888
1.1621671344389
1.16216713443892
1.16216713443894
1.16216713443896
1.16216713443898
1.162167134439
1.16216713443901
1.16216713443903
1.16216713443904
1.16216713443905
1.16216713443906
1.16216713443906
1.16216713443905
1.16216713443904
1.16216713443904
1.16216713443911
1.16216713443933
1.16216713443967
1.16216713443977
1.16216710796563
1.16216710796555
1.16216710796523
1.16216710796504
1.16216710796499
1.16216710796501
1.16216710796506
1.1621671079651
1.16216710796514
1.16216710796517
1.1621671079652
1.16216710796523
1.16216710796525
1.16216710796527
1.1621671079653
1.16216710796532
1.16216710796535
1.16216710796537
1.1621671079654
1.16216710796542
1.16216710796545
1.16216710796548
1.1621671079655
1.16216710796553
1.16216710796555
1.16216710796557
1.1621671079656
1.16216710796562
1.16216710796564
1.16216710796566
1.16216710796568
1.16216710796569
1.16216710796571
1.16216710796573
1.16216710796574
1.16216710796576
1.16216710796577
1.16216710796578
1.16216710796579
1.16216710796579
1.16216710796579
1.16216710796579
1.16216710796577
1.16216710796575
1.16216710796572
1.1621671079657
1.16216710796575
1.16216710796594
1.16216710796627
1.16216710796636
1.16216708149221
1.16216708149215
1.16216708149185
1.16216708149169
1.16216708149166
1.1621670814917
1.16216708149176
1.16216708149182
1.16216708149188
1.16216708149192
1.16216708149196
1.16216708149199
1.16216708149202
1.16216708149205
1.16216708149208
1.16216708149211
1.16216708149214
1.16216708149217
1.16216708149219
1.16216708149222
1.16216708149225
1.16216708149227
1.1621670814923
1.16216708149232
1.16216708149235
1.16216708149237
1.16216708149239
1.16216708149241
1.16216708149243
1.16216708149245
1.16216708149247
1.16216708149248
1.1621670814925
1.16216708149251
1.16216708149252
1.16216708149253