/*--------------------------------*- C++ -*----------------------------------*\
  =========                 |
  \\      /  F ield         | OpenFOAM: The Open Source CFD Toolbox
   \\    /   O peration     | Website:  https://openfoam.org
    \\  /    A nd           | Version:  10
     \\/     M anipulation  |
\*---------------------------------------------------------------------------*/
FoamFile
{
    format      ascii;
    class       volScalarField;
    location    "7.6";
    object      T;
}
// * * * * * * * * * * * * * * * * * * * * * * * * * * * * * * * * * * * * * //

dimensions      [0 0 0 1 0 0 0];

internalField   nonuniform List<scalar> 
2500
(
304.377567391096
304.374026859039
304.363792050319
304.355824220674
304.350674965468
304.347563279413
304.345746043102
304.344713620935
304.344145621407
304.343845400631
304.343691657511
304.343616359872
304.343580922066
304.34356431615
304.343556588661
304.343552690789
304.343550967481
304.343549817155
304.343548862434
304.343548245531
304.34354775446
304.343547348057
304.343547022225
304.343546820479
304.343546618946
304.343546460331
304.3435464079
304.343546405929
304.343546466277
304.343546599642
304.343546830277
304.34354726604
304.343547856665
304.343548838316
304.34355065896
304.343554391086
304.343562411192
304.343579641804
304.343617200159
304.343694931943
304.343851386701
304.34415520209
304.344723964934
304.345752316963
304.347560222749
304.350655827646
304.355802939105
304.363814335505
304.374109420604
304.377470331
303.567262195282
303.544545121781
303.514673056124
303.492088387191
303.477279998029
303.468126378632
303.462640826143
303.459441027189
303.45763267718
303.456647874729
303.456131937736
303.455872631003
303.455747564007
303.455689355629
303.455663141799
303.455651554908
303.455646633424
303.455644384706
303.455643196228
303.455642546369
303.455642112534
303.455641777438
303.45564151421
303.455641335192
303.455641177028
303.455641051002
303.455640990468
303.455640968058
303.455640987518
303.455641076982
303.45564129621
303.455641804816
303.455642881424
303.455645264661
303.455650667772
303.455663068908
303.455691077381
303.455752505478
303.455883081534
303.456149767817
303.456674274351
303.457666890733
303.45947634421
303.46266361286
303.468118983129
303.477235349108
303.492055509953
303.514790979462
303.544888594325
303.566852516225
302.727669673102
302.686103133667
302.642626580752
302.610957530555
302.590419867871
302.577788432841
302.570238242962
302.565837921632
302.563349406267
302.561991199703
302.561277944402
302.560918308122
302.560744262717
302.560663252911
302.560626919412
302.560611138119
302.560604528238
302.560601739358
302.560600485998
302.560599886575
302.560599539701
302.560599289936
302.560599096543
302.560598960764
302.560598849024
302.560598758631
302.560598705435
302.560598674269
302.560598664984
302.560598715521
302.560598903193
302.560599418768
302.560600714399
302.560603803268
302.560611071381
302.560628064194
302.560666754397
302.560751875358
302.56093250139
302.561301097083
302.562024802079
302.5633921477
302.565882035225
302.570267747597
302.577783796388
302.590382742997
302.610974700269
302.642926371571
302.686876704624
302.727762780347
301.957736271033
301.905534042995
301.858499390297
301.825598468994
301.804828020749
301.792350064122
301.785049185953
301.780872923883
301.778548200136
301.777296048887
301.776645890292
301.776321214507
301.77616540878
301.776093493549
301.776061529009
301.776047818222
301.776042154137
301.776039845925
301.776038879126
301.776038452079
301.776038224664
301.776038064636
301.776037938121
301.776037847627
301.776037776767
301.776037718126
301.776037677825
301.776037646302
301.776037623878
301.776037630131
301.776037732975
301.776038103183
301.776039145187
301.776041719669
301.776047881348
301.776062509386
301.776096235419
301.776171255879
301.776332063839
301.776663781187
301.777322548953
301.778582894405
301.78091070905
301.785078783418
301.792359386876
301.804832121473
301.825710758281
301.859006273589
301.906755447277
301.9588411144
301.320762026612
301.267835099994
301.224850770393
301.195943531539
301.178212432287
301.167828080314
301.161889313411
301.15855767964
301.156732310309
301.155761465056
301.155262425751
301.155015204846
301.15489733443
301.154843241199
301.154819338485
301.154809166838
301.154805009927
301.154803358227
301.154802703028
301.154802436395
301.154802307807
301.154802219157
301.154802145661
301.154802092382
301.154802052799
301.154802018909
301.154801991856
301.154801965339
301.154801939455
301.15480192634
301.154801962174
301.154802178863
301.154802904354
301.154804748388
301.154809207299
301.15481991669
301.15484484415
301.154900762675
301.155021614969
301.155273157835
301.155777718971
301.156754241883
301.158582739933
301.161911472317
301.167843272028
301.178245329481
301.196117000356
301.225472847092
301.269334566903
301.322784235432
300.839271790713
300.793135414446
300.758525405283
300.736096555812
300.722730078055
300.715099973403
300.71083486317
300.708487498386
300.707220706768
300.706554656151
300.706215219844
300.706048123972
300.705968824732
300.705932567191
300.705916604263
300.705909847809
300.705907111591
300.705906048143
300.705905647068
300.705905498762
300.705905437644
300.705905397434
300.705905360502
300.705905333212
300.705905314526
300.705905297455
300.70590528108
300.705905261407
300.705905238209
300.705905220506
300.705905220103
300.705905323644
300.705905774117
300.705906960791
300.705909851876
300.705916863708
300.705933304586
300.705970419016
300.706051141368
300.706220356654
300.70656261471
300.707231749747
300.70850056771
300.710847375955
300.715112695298
300.722769996086
300.736278101006
300.759140590221
300.794660521665
300.841762517224
300.503592494249
300.467868706542
300.442741148955
300.427010031018
300.417894590421
300.412820291403
300.410046604499
300.408548151972
300.407750987045
300.407336206997
300.407126360126
300.407023560036
300.406974926777
300.406952738127
300.406942989802
300.406938879214
300.406937227797
300.406936599599
300.406936374643
300.406936300766
300.406936278205
300.406936265963
300.406936251237
300.406936239708
300.406936233289
300.406936226232
300.406936217238
300.406936204022
300.406936186124
300.406936168756
300.406936157435
300.406936196289
300.406936447236
300.406937147739
300.406938867043
300.406943073447
300.40695299165
300.406975483306
300.407024630403
300.407128218537
300.407339159261
300.407755174254
300.408553112913
300.410051326731
300.412827042385
300.417926634472
300.427161010106
300.443258431403
300.469205641606
300.506053658525
300.286122664589
300.261054335965
300.244352411495
300.234226448812
300.228515101897
300.225412246686
300.223752697465
300.22287213481
300.222410019309
300.222171854196
300.222052107048
300.221993661339
300.221966064889
300.221953486145
300.221947965241
300.221945643438
300.22194471748
300.221944372671
300.22194425641
300.221944224623
300.221944218908
300.221944218958
300.22194421628
300.221944212824
300.221944212834
300.221944211086
300.221944206687
300.221944198549
300.221944186186
300.221944172225
300.2219441603
300.221944169047
300.221944296423
300.221944679549
300.221945630933
300.221947977069
300.221953531816
300.221966166408
300.221993862609
300.222052470373
300.222172456011
300.222410859493
300.222872903238
300.223752848714
300.225413650724
300.228534580836
300.234332430141
300.244734157281
300.262091375162
300.288207276211
300.154370106116
300.138206610514
300.127929366
300.121881687246
300.118557300643
300.116793090319
300.115869225649
300.115387516207
300.115137997021
300.115010529143
300.114946780772
300.114915751619
300.114901114589
300.114894443059
300.114891515326
300.114890286461
300.114889799886
300.11488962267
300.114889568125
300.114889558296
300.114889559674
300.114889562494
300.114889563404
300.114889563576
300.114889564931
300.11488956488
300.114889562858
300.11488955831
300.114889550494
300.114889540705
300.114889530858
300.114889529484
300.114889589364
300.114889784529
300.114890279349
300.114891508299
300.114894426254
300.114901074434
300.114915674871
300.114946651975
300.115010328463
300.11513764667
300.115386730907
300.115867523565
300.116791413096
300.118566161774
300.12194631367
300.128181803167
300.138931801755
300.155936472416
300.079314501479
300.069639855414
300.063734628378
300.060354791897
300.058541814657
300.057601106644
300.05711846916
300.05687107336
300.056744534768
300.056680424447
300.056648510574
300.056633006985
300.056625694941
300.056622359803
300.056620895545
300.056620281868
300.056620040678
300.056619955095
300.056619932165
300.056619930728
300.056619933104
300.056619936037
300.05661993785
300.056619939161
300.056619940508
300.056619940861
300.05661994006
300.056619937527
300.056619932928
300.056619926753
300.05661991996
300.056619916674
300.056619942628
300.056620036065
300.056620279736
300.056620888874
300.056622337734
300.056625640407
300.056632898216
300.056648318221
300.056680106669
300.056743997788
300.056870062124
300.057116519775
300.057598421749
300.058544153098
300.06038947388
300.063886396539
300.070103425985
300.080380917038
300.038916161443
300.033497291778
300.030306572787
300.028526933361
300.02759421144
300.027120573667
300.026882347033
300.026762255512
300.026701583908
300.026671085666
300.026655965836
300.026648630396
300.026645169144
300.026643588415
300.026642893788
300.026642603033
300.026642489636
300.026642450882
300.026642442069
300.026642442725
300.026642444853
300.026642447054
300.026642448619
300.026642449845
300.02664245082
300.026642451226
300.026642450924
300.02664244955
300.026642447009
300.026642443434
300.026642439303
300.026642436647
300.026642447038
300.026642489395
300.026642603651
300.02664289104
300.02664357522
300.026645133969
300.026648557778
300.026655833814
300.026670859748
300.026701187048
300.026761487416
300.026880812495
300.027118097851
300.027593562496
300.028543322056
300.030390416361
300.033771108821
300.039583610952
300.018283324166
300.015424495428
300.0137938399
300.012905924037
300.012450670156
300.012224215275
300.012112486527
300.012057078822
300.012029423818
300.012015627231
300.012008812506
300.012005508987
300.012003948681
300.012003234879
300.012002920826
300.012002789524
300.012002738722
300.012002722097
300.012002719046
300.012002719969
300.012002721444
300.012002722848
300.012002723901
300.012002724741
300.012002725347
300.012002725647
300.012002725533
300.012002724817
300.012002723491
300.012002721564
300.012002719275
300.012002717623
300.012002721475
300.012002739773
300.012002791024
300.01200292072
300.012003229546
300.012003932127
300.012005473049
300.012008745011
300.01201550676
300.012029198405
300.012056609967
300.012111481358
300.012222395289
300.01244918446
300.012912631097
300.013836738727
300.015575232646
300.018671480282
300.008245696059
300.006817338581
300.006025204612
300.005603399697
300.005391573058
300.005288263943
300.005238235223
300.005213821917
300.005201782158
300.005195819942
300.005192884793
300.005191462502
300.005190789786
300.005190481398
300.005190345517
300.005190288772
300.005190266998
300.005190260236
300.005190259333
300.005190259987
300.005190260868
300.005190261671
300.005190262288
300.005190262781
300.00519026312
300.0051902633
300.005190263255
300.005190262899
300.005190262242
300.005190261265
300.005190260085
300.00519025917
300.005190260496
300.005190268091
300.005190290172
300.005190346394
300.005190480216
300.005190783994
300.005191448637
300.005192857363
300.005195767728
300.00520167446
300.005213572766
300.005237652003
300.00528710174
300.005390221344
300.005605645932
300.006045650983
300.006895222622
300.008457183088
300.003578327216
300.002899333391
300.0025320234
300.002340443161
300.00224609767
300.002200943094
300.00217946769
300.00216915275
300.002164126032
300.002161654763
300.002160441944
300.002159854276
300.002159575832
300.002159447887
300.002159391419
300.002159367866
300.002159358917
300.002159356306
300.002159356094
300.002159356462
300.002159356937
300.002159357358
300.002159357687
300.002159357949
300.002159358123
300.002159358217
300.002159358199
300.00215935803
300.002159357719
300.002159357251
300.002159356679
300.002159356223
300.002159356643
300.002159359677
300.002159368852
300.002159392348
300.002159448225
300.002159574707
300.002159850541
300.002160433582
300.002161636616
300.002164081688
300.002169033451
300.002179158682
300.002200273223
300.002245152767
300.002340932822
300.002541137266
300.002937324816
300.003687004125
300.001497544999
300.001189218824
300.001026044456
300.000942552098
300.000902185276
300.00088320861
300.000874339318
300.000870145045
300.000868125125
300.000867139186
300.000866656725
300.000866422896
300.000866311877
300.000866260732
300.000866238119
300.000866228699
300.000866225162
300.000866224187
300.00086622416
300.000866224356
300.000866224592
300.000866224799
300.000866224961
300.000866225089
300.000866225173
300.000866225218
300.00086622521
300.000866225134
300.000866224993
300.000866224779
300.000866224517
300.000866224302
300.000866224424
300.000866225602
300.00086622929
300.000866238787
300.000866261342
300.000866312225
300.000866422751
300.000866655544
300.000867134857
300.000868109547
300.000870092594
300.000874187057
300.000882852487
300.000901614797
300.00094249185
300.001029852059
300.001206801213
300.001550505189
300.000605657929
300.000471447786
300.000401778754
300.00036675547
300.00035011209
300.000342419965
300.000338884636
300.000337238061
300.000336454348
300.000336074526
300.000335889175
300.000335799301
300.000335756531
300.000335736772
300.000335728019
300.000335724377
300.000335723026
300.000335722673
300.000335722683
300.00033572278
300.000335722889
300.000335722984
300.000335723058
300.000335723117
300.000335723155
300.000335723175
300.000335723171
300.000335723138
300.000335723077
300.000335722984
300.00033572287
300.000335722777
300.000335722811
300.000335723254
300.000335724692
300.000335728415
300.000335737243
300.00033575708
300.000335799971
300.000335889922
300.00033607458
300.000336449965
300.000337216626
300.00033881398
300.000342242865
300.000349800848
300.000366598743
300.000403269923
300.000479200591
300.000630246144
300.000237170098
300.000180997508
300.000152328683
300.000138148905
300.000131518274
300.000128502712
300.000127138856
300.000126513005
300.000126218564
300.000126076869
300.000126007903
300.000125974439
300.000125958474
300.000125951075
300.00012594779
300.000125946424
300.000125945923
300.000125945798
300.000125945808
300.000125945851
300.000125945899
300.000125945939
300.000125945972
300.000125945997
300.000125946012
300.000125946021
300.000125946019
300.000125946006
300.00012594598
300.000125945942
300.000125945895
300.000125945856
300.000125945865
300.00012594603
300.000125946576
300.000125947996
300.000125951355
300.000125958869
300.000125975033
300.000126008763
300.000126077749
300.000126217829
300.000126504786
300.000127107683
300.000128419501
300.000131361183
300.00013802592
300.00015287469
300.000184266469
300.000248089191
300.000090085547
300.000067417674
300.000056019559
300.000050465263
300.000047906658
300.00004676054
300.000046250072
300.000046019176
300.000045911783
300.00004586046
300.000045835542
300.00004582344
300.000045817649
300.000045814956
300.000045813757
300.000045813257
300.000045813075
300.00004581303
300.000045813035
300.000045813053
300.000045813072
300.000045813088
300.0000458131
300.00004581311
300.000045813117
300.00004581312
300.000045813119
300.000045813114
300.000045813104
300.000045813089
300.000045813071
300.000045813056
300.000045813059
300.00004581312
300.000045813324
300.000045813853
300.000045815098
300.000045817871
300.000045823801
300.000045836107
300.000045861163
300.000045911941
300.000046016193
300.000046236896
300.000046723321
300.000047832251
300.000050391459
300.000056205179
300.000068739897
300.000094739435
300.000033245701
300.000024404728
300.000020016811
300.000017907424
300.000016949128
300.000016525927
300.00001634016
300.000016257291
300.000016219175
300.000016201083
300.000016192318
300.000016188056
300.000016186009
300.000016185052
300.000016184624
300.000016184445
300.000016184378
300.000016184361
300.000016184362
300.000016184368
300.000016184374
300.00001618438
300.000016184384
300.000016184388
300.00001618439
300.000016184391
300.000016184391
300.000016184389
300.000016184385
300.00001618438
300.000016184374
300.000016184369
300.000016184371
300.000016184394
300.00001618447
300.000016184663
300.000016185115
300.000016186115
300.000016188238
300.000016192616
300.000016201485
300.000016219407
300.000016256253
300.000016334789
300.000016509984
300.000016915733
300.00001786884
300.000020074504
300.000024919181
300.000035155191
300.000011939175
300.000008599234
300.000006960421
300.000006182276
300.00000583326
300.00000568116
300.000005615304
300.000005586312
300.000005573119
300.000005566897
300.000005563888
300.000005562421
300.000005561713
300.000005561379
300.000005561228
300.000005561163
300.000005561138
300.00000556113
300.000005561129
300.00000556113
300.000005561131
300.000005561132
300.000005561133
300.000005561134
300.000005561134
300.000005561135
300.000005561134
300.000005561134
300.000005561133
300.000005561132
300.00000556113
300.000005561129
300.000005561131
300.000005561141
300.00000556117
300.00000556124
300.000005561402
300.000005561756
300.000005562501
300.000005564024
300.000005567091
300.000005573264
300.00000558596
300.000005613179
300.000005674587
300.000005818956
300.000006163863
300.00000697625
300.000008792248
300.000012695383
300.000004178357
300.000002953801
300.000002358975
300.000002079692
300.00000195589
300.000001902597
300.000001879814
300.000001869908
300.000001865445
300.000001863352
300.000001862339
300.000001861843
300.000001861601
300.000001861485
300.000001861431
300.000001861406
300.000001861395
300.00000186139
300.000001861388
300.000001861387
300.000001861386
300.000001861386
300.000001861385
300.000001861385
300.000001861384
300.000001861384
300.000001861384
300.000001861384
300.000001861384
300.000001861384
300.000001861385
300.000001861385
300.000001861388
300.000001861393
300.000001861405
300.000001861431
300.00000186149
300.000001861614
300.000001861872
300.000001862393
300.000001863432
300.000001865512
300.000001869786
300.000001878993
300.000001899976
300.000001950011
300.000002071486
300.000002362449
300.00000302378
300.000004468096
300.00000142707
300.000000990571
300.00000078045
300.0000006828
300.000000639974
300.000000621745
300.000000614042
300.000000610729
300.000000609249
300.000000608556
300.00000060822
300.000000608053
300.000000607969
300.000000607927
300.000000607906
300.000000607895
300.000000607889
300.000000607885
300.000000607883
300.000000607881
300.000000607879
300.000000607878
300.000000607877
300.000000607876
300.000000607875
300.000000607875
300.000000607875
300.000000607875
300.000000607876
300.000000607876
300.000000607877
300.000000607879
300.000000607881
300.000000607884
300.00000060789
300.000000607902
300.000000607924
300.000000607969
300.000000608059
300.000000608236
300.000000608583
300.000000609272
300.000000610682
300.000000613727
300.000000620729
300.000000637643
300.000000679338
300.00000078081
300.000001015135
300.000001534699
300.00000047638
300.000000324875
300.000000252561
300.000000219276
300.000000204819
300.000000198726
300.000000196176
300.000000195088
300.000000194604
300.000000194376
300.000000194263
300.000000194205
300.000000194174
300.000000194157
300.000000194147
300.000000194141
300.000000194136
300.000000194132
300.00000019413
300.000000194127
300.000000194126
300.000000194124
300.000000194123
300.000000194122
300.000000194121
300.000000194121
300.000000194121
300.000000194121
300.000000194122
300.000000194123
300.000000194124
300.000000194126
300.000000194128
300.000000194131
300.000000194135
300.000000194141
300.000000194151
300.000000194169
300.000000194202
300.000000194263
300.00000019438
300.000000194607
300.000000195065
300.000000196053
300.000000198339
300.000000203923
300.000000217881
300.000000252366
300.000000333236
300.000000515214
300.000000155747
300.000000104477
300.00000008023
300.000000069178
300.000000064419
300.000000062429
300.0000000616
300.000000061247
300.000000061088
300.000000061011
300.000000060971
300.000000060948
300.000000060934
300.000000060925
300.000000060919
300.000000060914
300.00000006091
300.000000060906
300.000000060904
300.000000060901
300.000000060899
300.000000060897
300.000000060896
300.000000060895
300.000000060895
300.000000060894
300.000000060894
300.000000060895
300.000000060895
300.000000060896
300.000000060897
300.000000060899
300.000000060901
300.000000060904
300.000000060908
300.000000060912
300.000000060918
300.000000060927
300.000000060941
300.000000060965
300.000000061006
300.000000061082
300.000000061231
300.000000061549
300.000000062281
300.000000064082
300.000000068637
300.00000008005
300.000000107241
300.00000016938
300.000000050068
300.000000033141
300.000000025242
300.000000021687
300.000000020167
300.000000019533
300.000000019267
300.000000019151
300.000000019097
300.000000019068
300.000000019051
300.000000019039
300.000000019031
300.000000019024
300.000000019019
300.000000019014
300.00000001901
300.000000019007
300.000000019004
300.000000019002
300.000000019
300.000000018998
300.000000018997
300.000000018996
300.000000018995
300.000000018995
300.000000018995
300.000000018995
300.000000018996
300.000000018997
300.000000018998
300.000000019
300.000000019002
300.000000019005
300.000000019008
300.000000019012
300.000000019017
300.000000019023
300.000000019031
300.000000019042
300.000000019059
300.000000019087
300.000000019138
300.000000019241
300.000000019473
300.00000002004
300.000000021482
300.000000025144
300.000000034029
300.00000005473
300.00000001599
300.000000010542
300.000000008073
300.000000006987
300.000000006526
300.00000000633
300.000000006245
300.000000006205
300.000000006183
300.000000006169
300.000000006159
300.000000006151
300.000000006144
300.000000006138
300.000000006133
300.000000006129
300.000000006125
300.000000006122
300.000000006119
300.000000006117
300.000000006115
300.000000006113
300.000000006112
300.000000006111
300.00000000611
300.00000000611
300.00000000611
300.00000000611
300.000000006111
300.000000006112
300.000000006113
300.000000006115
300.000000006117
300.00000000612
300.000000006123
300.000000006127
300.000000006131
300.000000006136
300.000000006142
300.000000006149
300.000000006159
300.000000006172
300.000000006193
300.000000006229
300.000000006303
300.000000006476
300.000000006911
300.000000008028
300.00000001082
300.000000017544
300.000000005227
300.000000003528
300.000000002822
300.000000002532
300.000000002409
300.000000002353
300.000000002324
300.000000002307
300.000000002295
300.000000002286
300.000000002278
300.000000002271
300.000000002265
300.000000002259
300.000000002254
300.00000000225
300.000000002246
300.000000002243
300.00000000224
300.000000002238
300.000000002236
300.000000002234
300.000000002233
300.000000002232
300.000000002231
300.000000002231
300.000000002231
300.000000002231
300.000000002232
300.000000002233
300.000000002234
300.000000002236
300.000000002238
300.000000002241
300.000000002244
300.000000002248
300.000000002252
300.000000002256
300.000000002262
300.000000002268
300.000000002275
300.000000002284
300.000000002295
300.000000002311
300.000000002336
300.000000002387
300.000000002503
300.000000002803
300.000000003613
300.000000005732
300.000000001896
300.000000001394
300.000000001248
300.000000001209
300.000000001192
300.000000001178
300.000000001167
300.000000001157
300.000000001148
300.00000000114
300.000000001132
300.000000001126
300.00000000112
300.000000001115
300.00000000111
300.000000001106
300.000000001102
300.000000001099
300.000000001096
300.000000001094
300.000000001092
300.00000000109
300.000000001089
300.000000001088
300.000000001087
300.000000001087
300.000000001087
300.000000001087
300.000000001088
300.000000001089
300.00000000109
300.000000001092
300.000000001094
300.000000001097
300.0000000011
300.000000001103
300.000000001107
300.000000001112
300.000000001117
300.000000001123
300.00000000113
300.000000001137
300.000000001145
300.000000001155
300.000000001166
300.000000001179
300.000000001197
300.000000001241
300.000000001419
300.000000002055
300.000000000885
300.000000000758
300.000000000785
300.000000000824
300.000000000839
300.000000000838
300.000000000832
300.000000000824
300.000000000815
300.000000000808
300.000000000801
300.000000000794
300.000000000788
300.000000000783
300.000000000778
300.000000000774
300.00000000077
300.000000000767
300.000000000765
300.000000000762
300.00000000076
300.000000000759
300.000000000757
300.000000000756
300.000000000756
300.000000000756
300.000000000756
300.000000000756
300.000000000756
300.000000000757
300.000000000759
300.000000000761
300.000000000763
300.000000000765
300.000000000768
300.000000000772
300.000000000776
300.00000000078
300.000000000786
300.000000000791
300.000000000798
300.000000000805
300.000000000813
300.00000000082
300.000000000828
300.00000000083
300.000000000818
300.000000000783
300.000000000765
300.000000000933
300.000000000586
300.000000000574
300.000000000653
300.000000000715
300.000000000739
300.000000000742
300.000000000736
300.000000000729
300.00000000072
300.000000000713
300.000000000706
300.000000000699
300.000000000693
300.000000000688
300.000000000683
300.000000000679
300.000000000676
300.000000000673
300.00000000067
300.000000000668
300.000000000666
300.000000000664
300.000000000663
300.000000000662
300.000000000661
300.000000000661
300.000000000661
300.000000000661
300.000000000662
300.000000000663
300.000000000664
300.000000000666
300.000000000668
300.000000000671
300.000000000674
300.000000000677
300.000000000681
300.000000000686
300.000000000691
300.000000000697
300.000000000703
300.00000000071
300.000000000718
300.000000000725
300.000000000732
300.000000000731
300.000000000711
300.000000000653
300.000000000576
300.000000000598
300.0000000005
300.000000000523
300.000000000618
300.000000000686
300.000000000712
300.000000000715
300.000000000709
300.000000000701
300.000000000693
300.000000000685
300.000000000678
300.000000000672
300.000000000666
300.000000000661
300.000000000656
300.000000000652
300.000000000649
300.000000000646
300.000000000643
300.000000000641
300.000000000639
300.000000000637
300.000000000636
300.000000000635
300.000000000635
300.000000000634
300.000000000634
300.000000000635
300.000000000635
300.000000000636
300.000000000637
300.000000000639
300.000000000641
300.000000000644
300.000000000647
300.00000000065
300.000000000654
300.000000000659
300.000000000664
300.00000000067
300.000000000676
300.000000000683
300.000000000691
300.000000000699
300.000000000705
300.000000000705
300.000000000683
300.000000000619
300.000000000524
300.000000000502
300.000000000479
300.000000000512
300.00000000061
300.000000000679
300.000000000705
300.000000000708
300.000000000702
300.000000000693
300.000000000685
300.000000000677
300.00000000067
300.000000000663
300.000000000657
300.000000000652
300.000000000648
300.000000000644
300.00000000064
300.000000000637
300.000000000635
300.000000000633
300.000000000631
300.000000000629
300.000000000628
300.000000000627
300.000000000627
300.000000000626
300.000000000626
300.000000000627
300.000000000627
300.000000000628
300.00000000063
300.000000000631
300.000000000633
300.000000000636
300.000000000638
300.000000000642
300.000000000646
300.00000000065
300.000000000655
300.000000000661
300.000000000668
300.000000000675
300.000000000683
300.000000000691
300.000000000698
300.000000000698
300.000000000677
300.000000000612
300.000000000512
300.000000000477
300.000000000476
300.000000000512
300.000000000611
300.000000000679
300.000000000704
300.000000000706
300.000000000699
300.00000000069
300.000000000681
300.000000000673
300.000000000666
300.000000000659
300.000000000654
300.000000000649
300.000000000644
300.00000000064
300.000000000637
300.000000000634
300.000000000632
300.00000000063
300.000000000628
300.000000000626
300.000000000625
300.000000000624
300.000000000624
300.000000000624
300.000000000624
300.000000000624
300.000000000624
300.000000000625
300.000000000627
300.000000000628
300.00000000063
300.000000000633
300.000000000635
300.000000000639
300.000000000643
300.000000000647
300.000000000652
300.000000000658
300.000000000665
300.000000000672
300.00000000068
300.000000000689
300.000000000697
300.000000000697
300.000000000677
300.000000000613
300.000000000513
300.000000000474
300.00000000048
300.000000000517
300.000000000615
300.000000000681
300.000000000704
300.000000000705
300.000000000697
300.000000000688
300.000000000679
300.000000000671
300.000000000664
300.000000000657
300.000000000651
300.000000000646
300.000000000642
300.000000000638
300.000000000635
300.000000000632
300.00000000063
300.000000000628
300.000000000626
300.000000000625
300.000000000624
300.000000000623
300.000000000622
300.000000000622
300.000000000622
300.000000000622
300.000000000623
300.000000000624
300.000000000625
300.000000000627
300.000000000628
300.000000000631
300.000000000634
300.000000000637
300.000000000641
300.000000000645
300.00000000065
300.000000000656
300.000000000663
300.00000000067
300.000000000679
300.000000000688
300.000000000696
300.000000000698
300.000000000679
300.000000000617
300.000000000518
300.000000000478
300.000000000486
300.000000000523
300.000000000619
300.000000000683
300.000000000705
300.000000000704
300.000000000696
300.000000000686
300.000000000677
300.000000000669
300.000000000661
300.000000000655
300.000000000649
300.000000000644
300.00000000064
300.000000000636
300.000000000633
300.000000000631
300.000000000628
300.000000000626
300.000000000625
300.000000000623
300.000000000622
300.000000000622
300.000000000621
300.000000000621
300.000000000621
300.000000000621
300.000000000622
300.000000000623
300.000000000624
300.000000000625
300.000000000627
300.000000000629
300.000000000632
300.000000000635