/*--------------------------------*- C++ -*----------------------------------*\
  =========                 |
  \\      /  F ield         | OpenFOAM: The Open Source CFD Toolbox
   \\    /   O peration     | Website:  https://openfoam.org
    \\  /    A nd           | Version:  10
     \\/     M anipulation  |
\*---------------------------------------------------------------------------*/
FoamFile
{
    format      ascii;
    class       volVectorField;
    location    "7.6";
    object      U;
}
// * * * * * * * * * * * * * * * * * * * * * * * * * * * * * * * * * * * * * //

dimensions      [0 1 -1 0 0 0 0];

internalField   nonuniform List<vector> 
2500
(
(-1.31426100215705e-06 -1.77886062145906e-06 2.71937984592752e-25)
(-3.36652587022755e-06 -2.45318274256947e-06 2.78812440587456e-24)
(-3.60639972117637e-06 -2.68854138283531e-06 3.79938770816746e-25)
(-3.00586947668556e-06 -2.79346026854619e-06 4.38758282956755e-26)
(-2.16596950604487e-06 -2.80381796098703e-06 -5.4635806984926e-25)
(-1.48805853250616e-06 -2.78579029529727e-06 -7.71754487973257e-25)
(-9.93984245182629e-07 -2.76220361679036e-06 -2.47184927162264e-25)
(-6.64184589974884e-07 -2.74289083484366e-06 -2.31277501421345e-25)
(-4.45301192942531e-07 -2.72840994646566e-06 -4.52228177832364e-25)
(-3.0191683526868e-07 -2.71840308998882e-06 3.28188415456636e-24)
(-2.06901831857927e-07 -2.71177103198373e-06 1.93129215595944e-24)
(-1.43068865189264e-07 -2.7075619027243e-06 4.21320663034372e-24)
(-9.92263897419616e-08 -2.70497776938093e-06 3.79723982680606e-24)
(-6.82917968934133e-08 -2.70342898435388e-06 1.50540575293451e-24)
(-4.58424690002034e-08 -2.70251311942283e-06 3.75992991787113e-24)
(-2.90854804274017e-08 -2.70197113776156e-06 1.05790410290553e-24)
(-1.62653719168476e-08 -2.70164539934066e-06 3.9609513445187e-24)
(-6.24796417133595e-09 -2.70144539969254e-06 3.7511193254925e-24)
(1.73048312038403e-09 -2.70132282737831e-06 8.19323243336964e-25)
(8.18616131947193e-09 -2.70124715095191e-06 2.80528705522183e-24)
(1.3491556431228e-08 -2.70119312323709e-06 1.3058862649262e-25)
(1.79305754908335e-08 -2.70116146184936e-06 -2.47907349846198e-25)
(2.17179839349487e-08 -2.70114540853708e-06 3.58127634963618e-24)
(2.50334046896208e-08 -2.70114215763062e-06 4.32479337576965e-25)
(2.80332779124813e-08 -2.70114127143013e-06 -1.14262818781396e-25)
(3.0860729845852e-08 -2.70114738700444e-06 3.20095632208899e-24)
(3.36518685916843e-08 -2.70116718526275e-06 1.23470435933511e-25)
(3.65461234157065e-08 -2.70119277640274e-06 1.1417150686639e-24)
(3.97010102451549e-08 -2.70122918175706e-06 3.56842730525581e-24)
(4.32904780247956e-08 -2.70128328593953e-06 -1.36200947246224e-25)
(4.75328246912454e-08 -2.70134862271158e-06 2.83383247187893e-25)
(5.27039311373376e-08 -2.70145420896379e-06 -4.10942519090335e-25)
(5.91682326983463e-08 -2.70159734095362e-06 8.64040092711603e-25)
(6.74412574037586e-08 -2.70182077085883e-06 8.68697275794392e-25)
(7.82794450229868e-08 -2.7021720939352e-06 -7.09984106936007e-26)
(9.28297204486458e-08 -2.70274374833016e-06 2.88959102051905e-24)
(1.12853220739382e-07 -2.70369135663383e-06 -2.83945723185282e-24)
(1.41152439034459e-07 -2.70526360912236e-06 -3.30481530798931e-25)
(1.82146158419999e-07 -2.7078707294501e-06 3.66204056998167e-27)
(2.42916230492262e-07 -2.71208411049202e-06 -2.04849684371015e-24)
(3.34639341842456e-07 -2.71868114648081e-06 -5.89722776977047e-24)
(4.74514865249323e-07 -2.72861153601538e-06 -5.02590405946116e-24)
(6.89699742957933e-07 -2.74300350579576e-06 -2.8481442456836e-24)
(1.0161259889068e-06 -2.76233600039858e-06 -4.83606453574991e-24)
(1.50840694702257e-06 -2.78629586955405e-06 -5.18942681393489e-24)
(2.1895986953522e-06 -2.805339671463e-06 -3.02216838171134e-24)
(3.04117072766293e-06 -2.79609027006836e-06 -4.94413289311964e-24)
(3.65924556380016e-06 -2.68981635404034e-06 -4.99544496118655e-24)
(3.40970224670952e-06 -2.44818588940617e-06 -2.42892605174556e-24)
(1.32207334134325e-06 -1.77623374852888e-06 -3.0032045309959e-24)
(-1.77706003047139e-06 -2.07816170148115e-06 2.53862632366819e-26)
(-5.82693356237454e-06 -3.7155232646597e-06 -1.27984684076837e-25)
(-6.51059089284886e-06 -5.01757731146943e-06 1.99234190692454e-25)
(-5.60297140048495e-06 -5.59094033049282e-06 -1.6932471032361e-25)
(-4.1505340860837e-06 -5.62799643392311e-06 -2.3014582966197e-24)
(-2.92631890233552e-06 -5.47090031430398e-06 -2.48443396247713e-24)
(-2.00870057253248e-06 -5.29686021386104e-06 -7.68938962062563e-25)
(-1.38114421248077e-06 -5.15936802537287e-06 -8.02551066675271e-25)
(-9.55958611918788e-07 -5.06265691365488e-06 -2.46079975407154e-24)
(-6.70593138181074e-07 -4.9980194740322e-06 3.45388441972689e-25)
(-4.76277125689401e-07 -4.95602027006776e-06 3.7602013938446e-24)
(-3.41462282371295e-07 -4.92912664875423e-06 3.5064563682187e-24)
(-2.45526482753857e-07 -4.91201668862707e-06 1.60419398542845e-24)
(-1.75299757352044e-07 -4.9010896507284e-06 2.57065773052624e-24)
(-1.22464674348198e-07 -4.89400216476497e-06 8.33697258314362e-25)
(-8.16804265003901e-08 -4.88929494657356e-06 1.12098944380396e-24)
(-4.95021108012707e-08 -4.88607911807832e-06 2.57890414991149e-24)
(-2.36420292184896e-08 -4.88380756056837e-06 1.26483083000483e-24)
(-2.51731681992281e-09 -4.88216513097768e-06 5.1097310292001e-25)
(1.49950923150916e-08 -4.88095315277879e-06 -1.87107472212787e-25)
(2.97192629911929e-08 -4.88004124090985e-06 -5.94702470073672e-25)
(4.22980121868667e-08 -4.87937362989417e-06 -1.84997526844655e-24)
(5.32478630196917e-08 -4.87888781222915e-06 1.62649624273957e-24)
(6.3007033315738e-08 -4.87855749116915e-06 2.14534039358636e-25)
(7.19566903173327e-08 -4.87836484400073e-06 -1.42464246999833e-24)
(8.04426524606527e-08 -4.878295889974e-06 1.12571048363899e-24)
(8.88149705928391e-08 -4.8783694838489e-06 -7.47614704450423e-25)
(9.74243706349126e-08 -4.87856884015935e-06 2.63081433645364e-24)
(1.06648484264975e-07 -4.87892510370585e-06 1.99593951688445e-24)
(1.16919913634801e-07 -4.87947270454611e-06 -1.31061002844502e-24)
(1.28739305050575e-07 -4.88024504297107e-06 9.0789656243837e-25)
(1.42746903099495e-07 -4.88133082750753e-06 -1.23583996674099e-24)
(1.59760374374157e-07 -4.88284094306021e-06 2.59109291603709e-24)
(1.80879305698276e-07 -4.88498042196533e-06 2.50234704057886e-24)
(2.07685031897612e-07 -4.88807689243436e-06 -1.12247173803381e-24)
(2.42480886678828e-07 -4.89267233100307e-06 9.150113025204e-25)
(2.88725762724612e-07 -4.89966043070985e-06 -1.36198357303271e-24)
(3.51764942362557e-07 -4.91049289119126e-06 -1.89545722341198e-25)
(4.39925361553477e-07 -4.92749896993854e-06 7.2385024548969e-25)
(5.66412292249863e-07 -4.95425984996478e-06 -4.39129380843143e-24)
(7.51828249123094e-07 -4.9960728908631e-06 -5.21908743327062e-24)
(1.02780480813254e-06 -5.06049777414295e-06 -5.24760572245159e-24)
(1.44324359540827e-06 -5.15718085798387e-06 -6.04921269747093e-24)
(2.06172766965687e-06 -5.29549237595009e-06 -5.09873857530933e-24)
(2.973406223081e-06 -5.47259871501414e-06 -5.52083828568382e-24)
(4.2013656005766e-06 -5.63631766185861e-06 -6.38138118555743e-24)
(5.6739479841853e-06 -5.60598227895403e-06 -5.3086509511252e-24)
(6.61472099996484e-06 -5.02340521097217e-06 -5.20718628279429e-24)
(5.91897823478266e-06 -3.68930914207602e-06 -4.987016483442e-24)
(1.79745261403082e-06 -2.05024971938792e-06 -2.4995765478058e-24)
(-1.09823020244235e-06 8.27586434320337e-07 -4.06296033992852e-25)
(-5.40471612577156e-06 -1.07874726355766e-06 -3.54426220432184e-24)
(-6.29700361957758e-06 -3.51091794153826e-06 -2.41102999611704e-25)
(-5.6520192737843e-06 -4.60051276723453e-06 -4.40223748708191e-25)
(-4.34400053526743e-06 -4.6804228033421e-06 -4.430306664371e-24)
(-3.18203472562224e-06 -4.37205563089544e-06 -4.39400057398321e-24)
(-2.27199788880255e-06 -4.02935096668734e-06 -1.03682745388461e-24)
(-1.62693189922939e-06 -3.75822272552562e-06 -1.14192956345001e-24)
(-1.17389177944403e-06 -3.56865276048927e-06 -4.85196872493748e-24)
(-8.58144141335383e-07 -3.44244561848016e-06 -3.23151915874864e-24)
(-6.34479868572239e-07 -3.36032814970384e-06 4.83341962966678e-24)
(-4.72873809581368e-07 -3.3072056680955e-06 1.91552994722123e-24)
(-3.5324184256083e-07 -3.27271825988356e-06 -1.87632388608107e-24)
(-2.62400498832979e-07 -3.25001917331612e-06 3.34775599741417e-24)
(-1.91792984302662e-07 -3.23476084916627e-06 -2.65682949205192e-24)
(-1.35743917464538e-07 -3.22422290083148e-06 3.76339553261442e-25)
(-9.0434725374907e-08 -3.21673108732237e-06 6.08568011421593e-25)
(-5.32311155882055e-08 -3.21126323192361e-06 -2.15899479224077e-24)
(-2.22541758190892e-08 -3.20718265864342e-06 -3.98994370104893e-25)
(3.88565779178999e-09 -3.20408750230483e-06 -3.60158225562248e-24)
(2.62385263017317e-08 -3.20173521219757e-06 -1.37861001804728e-24)
(4.56524286504078e-08 -3.19995758613533e-06 -3.95941465816698e-24)
(6.28204663895678e-08 -3.1986499787233e-06 -3.65315572793285e-25)
(7.83295223652573e-08 -3.19773337994661e-06 -2.91944063803712e-25)
(9.27160717343809e-08 -3.19718422678591e-06 -3.41513843893311e-24)
(1.06464061826418e-07 -3.19697733681818e-06 -8.39017613966443e-25)
(1.2006257839763e-07 -3.19710463246135e-06 -2.57908570396025e-24)
(1.34003059727543e-07 -3.19759463743733e-06 4.11162651896429e-24)
(1.48801246404093e-07 -3.19847978270156e-06 4.00435994251729e-25)
(1.65051433751135e-07 -3.19982584973535e-06 -3.12752184245906e-24)
(1.83433804815236e-07 -3.20174885912615e-06 2.10452144557828e-24)
(2.04777917742862e-07 -3.20439580335089e-06 -2.55242900123517e-24)
(2.30128510438019e-07 -3.20803349811286e-06 4.36634382419873e-24)
(2.60853585003214e-07 -3.21305605648085e-06 4.17832347219093e-24)
(2.98830116715911e-07 -3.22010620551026e-06 -2.99113326384582e-24)
(3.46701307026621e-07 -3.23022055531995e-06 -7.45472249983317e-25)
(4.08283984262303e-07 -3.24507861047896e-06 -1.04477998404234e-25)
(4.89269602075448e-07 -3.26739887945626e-06 2.90179664002893e-25)
(5.98230922872268e-07 -3.30151261818369e-06 2.52281991361118e-24)
(7.483937775691e-07 -3.35427956753127e-06 -5.88801156776395e-24)
(9.59844982527241e-07 -3.4360640139609e-06 -3.65808588306965e-24)
(1.26278188918691e-06 -3.56203372893638e-06 -3.75636765734923e-24)
(1.70261995760742e-06 -3.75189320647245e-06 -7.73144369748727e-24)
(2.33524626838083e-06 -4.02505838561638e-06 -3.81968045224481e-24)
(3.23613761302084e-06 -4.3742084567685e-06 -4.10301428898354e-24)
(4.39908321947985e-06 -4.69590514271834e-06 -8.13784287118333e-24)
(5.72611099289127e-06 -4.62986205131645e-06 -3.99350349494939e-24)
(6.40770737775819e-06 -3.52445067966889e-06 -3.70048305598645e-24)
(5.51642342835155e-06 -1.03208871670683e-06 -6.87542344081e-24)
(1.13216830911829e-06 8.94007745534595e-07 -1.69202075277325e-24)
(-3.71810996493717e-07 3.63115343366723e-06 -4.13467960761227e-25)
(-3.59672342427409e-06 2.01025744467024e-06 -3.90768323350497e-24)
(-4.50457994406471e-06 -1.37328787004739e-06 -1.81273862438642e-25)
(-4.34520499538302e-06 -2.97357631050725e-06 -1.17660803631105e-25)
(-3.55409527669081e-06 -3.18455538080501e-06 -1.85335304800219e-24)
(-2.7695474854328e-06 -2.8176794114513e-06 -2.45760940871929e-24)
(-2.09820689271827e-06 -2.37602991256337e-06 -6.43973318218695e-25)
(-1.58946181104218e-06 -2.01565669982905e-06 -7.26357833723113e-25)
(-1.20856145992618e-06 -1.75930961670039e-06 -3.04715827562903e-24)
(-9.26676792014598e-07 -1.58585674359096e-06 -3.59394611582663e-24)
(-7.15443096276779e-07 -1.47093694422725e-06 2.77645615538793e-24)
(-5.5480637621786e-07 -1.39494908094963e-06 -3.58610122183013e-25)
(-4.30484280192213e-07 -1.34429595687229e-06 -2.76272859048017e-24)
(-3.32496697430299e-07 -1.3099777356278e-06 1.36936700095528e-24)
(-2.53982248277741e-07 -1.28620994460265e-06 -3.19193683664307e-24)
(-1.90087508933149e-07 -1.26932415377275e-06 3.39933250141993e-26)
(-1.37369650468074e-07 -1.25700418478249e-06 -1.34018847580114e-24)
(-9.33197773533244e-08 -1.2478174281253e-06 -2.65502061518167e-24)
(-5.60600226854612e-08 -1.24083978065233e-06 -4.30407576879819e-25)
(-2.41601915100452e-08 -1.23548185416412e-06 -3.70375908780958e-24)
(3.50771301321021e-09 -1.23136750399044e-06 -1.04723739525646e-24)
(2.78678659913099e-08 -1.22822343215367e-06 -2.36413538465883e-24)
(4.96948791792146e-08 -1.22590060839678e-06 -1.94967677748983e-24)
(6.96600343836223e-08 -1.22426681170947e-06 -2.35055638584907e-25)
(8.83692408143779e-08 -1.22327148116047e-06 -1.85424042928534e-24)
(1.06395906302324e-07 -1.2228868319761e-06 -2.18807284848301e-24)
(1.24295532014388e-07 -1.22309470774698e-06 -1.27384372383417e-24)
(1.42635093236696e-07 -1.22394563099576e-06 2.09424609262043e-24)
(1.62021937862483e-07 -1.22548528233778e-06 -1.51359391409532e-24)
(1.83117125472452e-07 -1.22782802786502e-06 -1.9333632475754e-24)
(2.06682718348777e-07 -1.23114844483869e-06 7.46566069028281e-25)
(2.3363135045748e-07 -1.23569593615525e-06 -1.44258424460987e-24)
(2.65077498012825e-07 -1.24184207239785e-06 2.53798852713373e-24)
(3.02443875757309e-07 -1.25019873771842e-06 2.44281589707986e-24)
(3.47593874652935e-07 -1.26168693769757e-06 -1.70968792165079e-24)
(4.03029551240503e-07 -1.27776606318208e-06 -2.17885558534049e-24)
(4.72194237256983e-07 -1.30074510610269e-06 1.55971406156263e-24)
(5.59940752196628e-07 -1.33429158341594e-06 3.67906979985495e-25)
(6.73134986776214e-07 -1.38418619749647e-06 9.81267200181027e-25)
(8.21804444721574e-07 -1.45948517320801e-06 -3.95350056089165e-24)
(1.02025179112097e-06 -1.57379558028859e-06 -6.6682184313587e-25)
(1.28872620377478e-06 -1.74690105721576e-06 -6.535774285836e-25)
(1.65578598496947e-06 -2.00379517848771e-06 -4.88556512879827e-24)
(2.15122758023404e-06 -2.36740236706766e-06 -8.35092304064401e-25)
(2.81172660112814e-06 -2.81878098311737e-06 -9.98135463304934e-25)
(3.59354220509406e-06 -3.20569763273087e-06 -5.33365325203341e-24)
(4.39771552513644e-06 -3.01690317693722e-06 -8.83460300600689e-25)
(4.58903686476043e-06 -1.39922229068029e-06 -4.28447644462669e-25)
(3.69805868375574e-06 2.0679602188859e-06 -4.6897280674398e-24)
(4.12179895477846e-07 3.72785319116123e-06 2.20114100551484e-25)
(1.45399906974533e-07 5.62180819795346e-06 3.16783282256278e-26)
(-1.56196375820872e-06 4.50025551294916e-06 -1.37802653708076e-24)
(-2.37596623490537e-06 5.41341314057457e-07 3.87141509950739e-25)
(-2.67479724712394e-06 -1.47698991298947e-06 3.63258221679488e-25)
(-2.45895528745617e-06 -1.8853169655172e-06 7.37002946296112e-25)
(-2.11827633203266e-06 -1.56552570183243e-06 -9.38624787147738e-25)
(-1.74588867501972e-06 -1.11155996877989e-06 -9.07374293023641e-26)
(-1.41971199039988e-06 -7.20253269680091e-07 -1.09037963708534e-25)
(-1.14545730205335e-06 -4.32483159155266e-07 -1.24664294460394e-24)
(-9.22854268610935e-07 -2.32050044084973e-07 -1.28293683165821e-24)
(-7.43053081391531e-07 -9.54649732705579e-08 1.94000299848801e-24)
(-5.97821267314948e-07 -2.49426816663184e-09 6.54321912632326e-25)
(-4.799797758531e-07 6.13185899277692e-08 -6.37938018436857e-25)
(-3.83632218835088e-07 1.05808116375362e-07 1.01327383591756e-24)
(-3.04212394583292e-07 1.37464704234723e-07 -9.82424413858818e-25)
(-2.38137276289739e-07 1.60496199567635e-07 5.08596679429262e-25)
(-1.82641748116056e-07 1.77624994330744e-07 1.46023745210953e-25)
(-1.35573393370792e-07 1.90609006489227e-07 -3.96123965985905e-25)
(-9.52350019028176e-08 2.00591630908466e-07 3.89875914737163e-25)
(-6.0276012832079e-08 2.0831933510177e-07 -1.11567373818671e-24)
(-2.95907461266397e-08 2.14304495951175e-07 -9.01946597333817e-26)
(-2.25968608131619e-09 2.18886437660356e-07 -7.92062362146378e-25)
(2.25058981203066e-08 2.22293341194073e-07 -3.29363936438281e-25)
(4.54000431327431e-08 2.24675251458441e-07 2.90339883904842e-25)
(6.7052663700866e-08 2.26120059980163e-07 -4.99554804149279e-25)
(8.80669845659029e-08 2.26675230090365e-07 -4.56208066903443e-25)
(1.0902710663929e-07 2.26338007446762e-07 -3.39978010172427e-25)
(1.30530102805971e-07 2.25074505211634e-07 1.13366844694342e-24)
(1.53202869565568e-07 2.22788724247083e-07 -4.06303449910291e-25)
(1.77729460431816e-07 2.19339871999202e-07 -9.42006120418912e-25)
(2.04889816214355e-07 2.14489206912047e-07 2.31692321978438e-25)
(2.35597598414478e-07 2.07914517182533e-07 -9.40008529520251e-25)
(2.70934766917751e-07 1.99111976792398e-07 1.1651899325657e-24)
(3.12241986163051e-07 1.87324255661832e-07 1.20428374900971e-24)
(3.61206004564243e-07 1.71380118778292e-07 -8.2594992743554e-25)
(4.19962668883101e-07 1.49528357155489e-07 -8.07645216285237e-25)
(4.91263433318876e-07 1.19036587085698e-07 5.23441620851386e-25)
(5.78682305292564e-07 7.57027145901346e-08 1.03207326376326e-25)
(6.86762295634633e-07 1.30345697366575e-08 1.85840066461237e-25)
(8.21434572151872e-07 -7.88527675258093e-08 -3.46597770553513e-24)
(9.89873752469541e-07 -2.14487344684709e-07 -8.77145603870151e-25)
(1.20046336451874e-06 -4.14348446443208e-07 -8.11467717541633e-25)
(1.46212282308528e-06 -7.02733805744992e-07 -3.42378610161375e-24)
(1.77573107267072e-06 -1.09806934061669e-06 -9.25347631399492e-25)
(2.13665541270812e-06 -1.56420575107031e-06 -1.04220299717938e-24)
(2.47093475855559e-06 -1.90948507248596e-06 -3.79664052828383e-24)
(2.69214373452075e-06 -1.53120140653038e-06 -1.001062515517e-24)
(2.41610792817942e-06 5.01328917836338e-07 -8.50979407162494e-25)
(1.62945524439731e-06 4.55922819756955e-06 -3.86430473787125e-24)
(-1.10231188144449e-07 5.73688100523177e-06 -2.54009426430408e-25)
(4.16232338403061e-07 6.63399496633682e-06 4.10298120218094e-25)
(4.91316182834904e-08 6.01761070826731e-06 -2.26335672455113e-25)
(-6.27007168766141e-07 1.88727687294824e-06 8.37183895664516e-25)
(-1.22759114526252e-06 -3.96855181459771e-07 5.27257517515822e-25)
(-1.46135927020486e-06 -1.00428098852823e-06 1.13351553630675e-25)
(-1.48446011612306e-06 -7.91025906901172e-07 -3.32592636384802e-25)
(-1.37052885968189e-06 -3.82665542691979e-07 2.82089510468249e-25)
(-1.20999520212344e-06 -3.0879210117751e-09 3.21239611547559e-25)
(-1.03842479204121e-06 2.88445254817131e-07 -2.5272824689562e-25)
(-8.77390068864167e-07 4.98820312016026e-07 -9.86329471339808e-26)
(-7.33962364810863e-07 6.46902576650589e-07 1.72549571106775e-24)
(-6.09845865613655e-07 7.50875854773756e-07 1.18141814765601e-24)
(-5.04060262407721e-07 8.24378619430398e-07 4.35883710487723e-25)
(-4.14398059910059e-07 8.77051704636624e-07 1.28046605858574e-24)
(-3.3849466707175e-07 9.15459822376978e-07 1.53354403763255e-25)
(-2.74051828926179e-07 9.43990559009097e-07 9.61130232684072e-25)
(-2.19052667140818e-07 9.65568217731124e-07 1.05152835723398e-24)
(-1.71781661227964e-07 9.82136192183553e-07 7.1632051442584e-25)
(-1.3080061369461e-07 9.94997772430023e-07 1.05659463569682e-24)
(-9.49035964350042e-08 1.0050276034218e-06 2.2608385186192e-25)
(-6.30733438493e-08 1.01283552321055e-06 6.43076160776895e-25)
(-3.44436257044133e-08 1.01882476764197e-06 6.57027543477446e-26)
(-8.25659215564081e-09 1.02327862021905e-06 6.306112822736e-25)
(1.61650935522634e-08 1.02637634592453e-06 7.057924353326e-25)
(3.94482902367709e-08 1.02823744577472e-06 1.56536490597816e-25)
(6.21862272839238e-08 1.0289134036416e-06 5.30666089087186e-25)
(8.49586174927369e-08 1.02841311820829e-06 9.88440592119563e-27)
(1.08353357640964e-07 1.02667925802353e-06 9.1326421498742e-25)
(1.32993340537397e-07 1.02359776333493e-06 2.11177896719906e-25)
(1.59543621428699e-07 1.01899455900847e-06 -4.69172074602336e-25)
(1.88754214140101e-07 1.01259221971874e-06 2.64869785171311e-25)
(2.21484945839835e-07 1.00398108358e-06 -8.2927006600746e-25)
(2.58731079783697e-07 9.92560216527024e-07 5.18197438057714e-25)
(3.0168467810309e-07 9.77460482241245e-07 6.24169971251785e-25)
(3.51769432195001e-07 9.57356443827029e-07 -4.85459486695817e-25)
(4.10676792289472e-07 9.30300944013443e-07 -8.49456746169179e-26)
(4.8039834483399e-07 8.93374455673576e-07 8.6409946299331e-27)
(5.63212059786567e-07 8.42177179457098e-07 -1.24003300392258e-25)
(6.61442750923702e-07 7.70142783914081e-07 1.9167340393996e-25)
(7.77294460834619e-07 6.67600008341427e-07 -1.54283446614611e-24)
(9.11701758418641e-07 5.20797949203035e-07 -7.44338276572875e-25)
(1.06302565723859e-06 3.11292594317757e-07 -7.19654355350427e-25)
(1.22407746036245e-06 1.93130503549955e-08 -1.69110237687439e-24)
(1.37349966503126e-06 -3.64454972026405e-07 -7.2509485010027e-25)
(1.47598294163735e-06 -7.86171525590631e-07 -8.10330164351621e-25)
(1.44351979817632e-06 -1.02830878477878e-06 -2.04829326367178e-24)
(1.20784316265658e-06 -4.57017169375577e-07 -7.99953301527771e-25)
(6.19745139769201e-07 1.8353851932366e-06 -7.30739245438172e-25)
(-2.61665302066779e-08 6.07083992111903e-06 -2.09636963326814e-24)
(-3.94824780142415e-07 6.75560062487836e-06 -1.61625572557271e-25)
(5.03258157381146e-07 6.77184316615515e-06 6.1610967807652e-25)
(1.02609211303149e-06 6.56687723214363e-06 1.11838871048531e-24)
(4.93297391504261e-07 2.58006518655617e-06 1.03540670991101e-24)
(-2.29323578338158e-07 1.80210563887287e-07 5.44341860400465e-25)
(-7.26283856496017e-07 -5.8937280277981e-07 2.88122579425754e-25)
(-9.80928532724683e-07 -5.00854732106749e-07 3.84923843038581e-25)
(-1.04617689290242e-06 -1.66083757050001e-07 4.52449964623891e-25)
(-1.00857737989831e-06 1.77475026204985e-07 5.15118085011389e-25)
(-9.1891489985794e-07 4.55454676554186e-07 6.34783063621375e-25)
(-8.10769545022984e-07 6.64186588310945e-07 8.35835433092614e-25)
(-7.01323096395439e-07 8.16299628213831e-07 1.09931440792453e-24)
(-5.98944498837001e-07 9.26508546771339e-07 1.26395335263544e-24)
(-5.07117303988764e-07 1.00668712799149e-06 1.14160091353132e-24)
(-4.26461081718001e-07 1.06563395742214e-06 9.82628704514559e-25)
(-3.56394856817713e-07 1.10956742081706e-06 9.78641337823064e-25)
(-2.95742079689603e-07 1.14281208587482e-06 1.11895228583433e-24)
(-2.43184706770899e-07 1.16832595694071e-06 1.38234551739819e-24)
(-1.97447794900798e-07 1.18814134708289e-06 1.47614770607128e-24)
(-1.573721880982e-07 1.20364687114197e-06 1.33446043614175e-24)
(-1.21931613274907e-07 1.21582009166188e-06 1.19931292729432e-24)
(-9.02263667580264e-08 1.22531830199848e-06 9.85839334504261e-25)
(-6.14711277449254e-08 1.23261513197891e-06 8.21303461822969e-25)
(-3.49615903409722e-08 1.23803073710201e-06 1.02593437908199e-24)
(-1.00570531541491e-08 1.24178254063533e-06 8.63839433621713e-25)
(1.38363622441432e-08 1.2440073577539e-06 8.2940167924314e-25)
(3.72896286931301e-08 1.2447645152211e-06 9.74515823844186e-25)
(6.08554216795228e-08 1.24405597207359e-06 5.23212700090922e-25)
(8.50943165136552e-08 1.24182191612057e-06 4.30961476762192e-25)
(1.10600175892141e-07 1.23793958928321e-06 4.77494472316061e-25)
(1.38003274944844e-07 1.23218682930714e-06 1.48210389901046e-25)
(1.67993173228317e-07 1.22426089223013e-06 -5.02285981030087e-26)
(2.01345352282117e-07 1.21367857016091e-06 -3.62818868692402e-25)
(2.38945802435908e-07 1.19979318063863e-06 -1.92869604333844e-25)
(2.8180469313032e-07 1.18162577009826e-06 -6.22750723839841e-26)
(3.31056990152045e-07 1.15778367661091e-06 8.19580172989075e-26)
(3.87952890602342e-07 1.12622508324276e-06 2.62780605031091e-25)
(4.53771431628489e-07 1.08399283504101e-06 -2.12249038947031e-25)
(5.29657236972257e-07 1.02676828144698e-06 -2.52477770459045e-25)
(6.16145707671115e-07 9.48325717749564e-07 -9.49237654110857e-26)
(7.1257889496057e-07 8.39830099543548e-07 -2.67155588135577e-25)
(8.15374900466905e-07 6.89316670279236e-07 -5.34470898880511e-25)
(9.16136140705833e-07 4.81804125935309e-07 -5.40001895122056e-25)
(9.97401847382734e-07 2.03779339518703e-07 -3.24083473293116e-25)
(1.02547087646386e-06 -1.43601458274698e-07 -4.91081712500281e-25)
(9.49227113544524e-07 -4.91812271540718e-07 -5.31246053327517e-25)
(6.83418660998054e-07 -6.10800541820318e-07 -4.02538335746187e-25)
(1.79183996510446e-07 1.18457050636166e-07 -5.23661099070629e-25)
(-5.39507247960614e-07 2.51962781771572e-06 -4.06912688753629e-25)
(-1.04468255250783e-06 6.60961485572947e-06 -8.87368212036875e-26)
(-4.97656117908318e-07 6.88982477140397e-06 1.33617786555331e-25)
(4.90085520733024e-07 6.33538184378249e-06 6.13809228932806e-25)
(1.43841245345204e-06 6.44208100695462e-06 1.58037095260667e-24)
(1.03680670134824e-06 2.78558695319607e-06 9.64952293640946e-25)
(3.31586992599934e-07 3.85519868869674e-07 4.61162112169837e-25)
(-2.63043428822297e-07 -4.95309129627362e-07 2.43375150577747e-25)
(-6.26931516008824e-07 -5.22700753875244e-07 6.83457868816136e-25)
(-7.93675876215008e-07 -2.67643020306223e-07 4.60696748517052e-25)
(-8.34549100703933e-07 2.97837640252125e-08 5.1653846871463e-25)
(-8.02988014773268e-07 2.85044380462651e-07 9.13745310955707e-25)
(-7.3591891933414e-07 4.84962939591118e-07 1.03276354154972e-24)
(-6.55177568917297e-07 6.35889863659212e-07 5.84111560519495e-25)
(-5.72679793003885e-07 7.48669871972892e-07 9.90366201776185e-25)
(-4.94634908399643e-07 8.32984433566117e-07 1.17373260443568e-24)
(-4.23575536055375e-07 8.96458129929791e-07 6.46509929104901e-25)
(-3.60241268640366e-07 9.44739606657669e-07 1.0843078435448e-24)
(-3.04348084920579e-07 9.81884355951017e-07 9.69314529940249e-25)
(-2.55185425548184e-07 1.01076860528989e-06 1.21604546157163e-24)
(-2.11884003661942e-07 1.03343633947263e-06 1.48944481086277e-24)
(-1.73553463985297e-07 1.0513093030277e-06 1.21788789561293e-24)
(-1.39356618607827e-07 1.06540860339573e-06 1.37222325881004e-24)
(-1.08524989886019e-07 1.07644620468823e-06 9.62198722833892e-25)
(-8.03565243510204e-08 1.08493063210707e-06 9.93159203679684e-25)
(-5.42170007296988e-08 1.09122214163787e-06 9.44161160477979e-25)
(-2.95152193394325e-08 1.09555532125781e-06 7.69999312905838e-25)
(-5.69771446875133e-09 1.09808230683655e-06 9.80408212269113e-25)
(1.77643911336476e-08 1.09887565393935e-06 9.45770734000164e-25)
(4.13940482118105e-08 1.09793532851297e-06 6.27683988555498e-25)
(6.5721133919228e-08 1.09519445995601e-06 1.27406387417068e-25)
(9.1291654007062e-08 1.09051813123732e-06 4.32566735421954e-25)
(1.18685869789592e-07 1.08365901870976e-06 3.74822261287454e-25)
(1.48526670579915e-07 1.07427789548186e-06 -1.89336968375069e-25)
(1.81501327593937e-07 1.06186277566719e-06 -8.40110785705222e-26)
(2.18363169753448e-07 1.04571507882879e-06 -4.97454934713058e-25)
(2.59934728723081e-07 1.02480808922478e-06 -3.79789511463774e-25)
(3.07080375974751e-07 9.97711483743246e-07 3.3322437185827e-25)
(3.60632073505495e-07 9.62393412541431e-07 3.16668096684279e-25)
(4.21266404537696e-07 9.15965313156609e-07 -2.02654450430033e-25)
(4.89229446720916e-07 8.54388588647573e-07 -2.63449255549411e-25)
(5.63714825399097e-07 7.72013637216389e-07 -2.19627023906583e-25)
(6.42134261679489e-07 6.61193551574761e-07 4.06548506010078e-25)
(7.18144993310877e-07 5.12165170023524e-07 -2.53389095990819e-25)
(7.79731579656389e-07 3.13859129437973e-07 -2.49271064930734e-25)
(8.04665748284172e-07 5.90998124557515e-08 4.86873840958467e-25)
(7.5570710200539e-07 -2.41432232972893e-07 -1.99242065723829e-25)
(5.78759699955031e-07 -5.09325180950179e-07 -2.03310259985127e-25)
(2.03229812959155e-07 -5.12817864406164e-07 5.28171744188902e-25)
(-4.01473829940325e-07 3.24865253051553e-07 -2.12154588641096e-25)
(-1.10797545499284e-06 2.71919798703669e-06 -7.45087977256249e-26)
(-1.48666205894304e-06 6.47086520538763e-06 1.02212042878785e-24)
(-4.97050871225723e-07 6.44170506971054e-06 1.86566319320217e-25)
(4.35081397907647e-07 5.64134180840242e-06 5.20330055004531e-25)
(1.468288385933e-06 5.98969876307328e-06 1.72089285852629e-24)
(1.1793779734434e-06 2.7306640305221e-06 7.86617745394983e-25)
(5.71043977744591e-07 4.00048067769646e-07 4.08150688004809e-25)
(-9.9249625674409e-09 -5.45736839517967e-07 7.71491045123145e-25)
(-3.96806706916916e-07 -6.68373951928461e-07 9.80905701321208e-25)
(-6.06714429482845e-07 -4.87134324844205e-07 4.13310398456172e-25)
(-6.90786548826698e-07 -2.37273246232822e-07 4.43305002463967e-25)
(-6.97097980864198e-07 -8.57485684915844e-09 1.05141505571523e-24)
(-6.60126094686575e-07 1.78418928995842e-07 1.06580673446236e-24)
(-6.02427214753102e-07 3.24616133967204e-07 5.48482341163434e-26)
(-5.37106201043368e-07 4.37171480438557e-07 6.27737869312472e-25)
(-4.71725157471492e-07 5.23535528553314e-07 1.07496385980611e-24)
(-4.09955154299208e-07 5.90020011428131e-07 1.7765146635861e-25)
(-3.53448417044423e-07 6.41544435073402e-07 1.08687978224764e-24)
(-3.02610304111003e-07 6.81805655747489e-07 7.12215425135836e-25)
(-2.57211974162787e-07 7.13510795311185e-07 8.81972517224581e-25)
(-2.16740430815102e-07 7.38621356752142e-07 1.35330564390988e-24)
(-1.80562776903669e-07 7.58569112139671e-07 9.55539079757673e-25)
(-1.4801453853008e-07 7.74373532822112e-07 1.39102782148023e-24)
(-1.18456180063052e-07 7.8679123573725e-07 7.94206285333184e-25)
(-9.12810245157772e-08 7.96344779212349e-07 1.04114683874618e-24)
(-6.59244978219496e-08 8.03415968556052e-07 7.00802966664986e-25)
(-4.18524624024437e-08 8.08264473174129e-07 5.88364036316697e-25)
(-1.8554338061198e-08 8.11050976223855e-07 1.0331848393475e-24)
(4.46095021436666e-09 8.11851876560038e-07 7.48611108276148e-25)
(2.76728798304734e-08 8.10669880330631e-07 6.85800286949095e-25)
(5.15720398077962e-08 8.07433687298416e-07 -2.05908252674251e-25)
(7.66592957841541e-08 8.01996649723209e-07 2.81542378008528e-25)
(1.03460107155077e-07 7.94097411202979e-07 5.4321012559054e-25)
(1.32527534786533e-07 7.83365369130093e-07 -4.32771075429083e-25)
(1.64451143589776e-07 7.69279449927563e-07 2.35143039527781e-25)
(1.9985777827969e-07 7.51100916475022e-07 -7.95445721571047e-25)
(2.39389204809612e-07 7.2780799946858e-07 -6.48108222272934e-25)
(2.83657978068223e-07 6.97964134984326e-07 5.7987359133352e-25)
(3.33139815663103e-07 6.59605304677993e-07 2.7769180434359e-25)
(3.88015164412514e-07 6.10041590713048e-07 -1.25639013345138e-25)
(4.47844515094311e-07 5.45586155125749e-07 -2.31701662054762e-25)
(5.10911681015484e-07 4.61325457124489e-07 -4.34045680058029e-25)
(5.73466981375149e-07 3.50937785695252e-07 6.43438974140985e-25)
(6.27791530217688e-07 2.06922456647482e-07 -4.07190579626897e-26)
(6.60648258961445e-07 2.19528852644161e-08 -2.22533269846747e-26)
(6.49053441393365e-07 -2.05637277568806e-07 7.78459370563448e-25)