/*--------------------------------*- C++ -*----------------------------------*\
  =========                 |
  \\      /  F ield         | OpenFOAM: The Open Source CFD Toolbox
   \\    /   O peration     | Website:  https://openfoam.org
    \\  /    A nd           | Version:  10
     \\/     M anipulation  |
\*---------------------------------------------------------------------------*/
FoamFile
{
    format      ascii;
    class       volScalarField;
    location    "7.6";
    object      wallHeatFlux;
}
// * * * * * * * * * * * * * * * * * * * * * * * * * * * * * * * * * * * * * //

dimensions      [1 0 -3 0 0 0 0];

internalField   uniform 0;

boundaryField
{
    back
    {
        type            calculated;
        value           uniform 0;
    }
    bottom
    {
        type            calculated;
        value           nonuniform List<scalar> 
50
(
79.0041240581692
79.9272690466271
82.5961730102625
84.673364994902
86.0152539346694
86.8257361699451
87.2990422991154
87.5674017008404
87.7145840047243
87.7924862023852
87.8318742530602
87.8510600307907
87.8600326773016
87.8639998056591
87.8656955183284
87.8663440152837
87.8666312554594
87.8667127813185
87.8667128718286
87.8667163084673
87.8667103486696
87.866704597757
87.8666992604252
87.8667032405902
87.8666998951119
87.8666980846235
87.8667035391133
87.8667084832427
87.8667175048128
87.8667282322626
87.8667349662152
87.8667452631812
87.8667118767726
87.8666020190529
87.8663009677206
87.8655319380257
87.8636790661315
87.8593655282057
87.8499900090039
87.8300906415266
87.7897167800072
87.7109913715915
87.5632783821348
87.2955264606471
86.8250509718474
86.0181256615495
84.676405115214
82.5880452146567
79.903150430937
79.0270946164945
)
;
    }
    left
    {
        type            calculated;
        value           uniform 0;
    }
    front
    {
        type            calculated;
        value           uniform 0;
    }
    right
    {
        type            calculated;
        value           uniform 0;
    }
    top
    {
        type            calculated;
        value           uniform 0;
    }
}


// ************************************************************************* //
