/*--------------------------------*- C++ -*----------------------------------*\
  =========                 |
  \\      /  F ield         | OpenFOAM: The Open Source CFD Toolbox
   \\    /   O peration     | Website:  https://openfoam.org
    \\  /    A nd           | Version:  10
     \\/     M anipulation  |
\*---------------------------------------------------------------------------*/
FoamFile
{
    format      ascii;
    class       volScalarField;
    location    "6";
    object      alphat;
}
// * * * * * * * * * * * * * * * * * * * * * * * * * * * * * * * * * * * * * //

dimensions      [1 -1 -1 0 0 0 0];

internalField   nonuniform List<scalar> 
2500
(
9.58525968796083e-15
1.87701530327091e-13
7.98432485198565e-13
1.37252637315176e-12
1.85020256887599e-12
2.21532411336562e-12
2.47282406099744e-12
2.64087444028486e-12
2.74268860721702e-12
2.80014733609352e-12
2.83045815651203e-12
2.84545657296027e-12
2.8524415022597e-12
2.85551289147118e-12
2.85679169531123e-12
2.85729700250576e-12
2.85748666689454e-12
2.85755414748644e-12
2.85757665882037e-12
2.85758342952901e-12
2.85758500038441e-12
2.8575849928951e-12
2.85758459296564e-12
2.857584181166e-12
2.85758386011845e-12
2.85758365921597e-12
2.85758358123259e-12
2.85758355683708e-12
2.85758336647105e-12
2.85758248304528e-12
2.85757928300339e-12
2.85756900808651e-12
2.85753847688983e-12
2.85745266188259e-12
2.85722271496155e-12
2.8566340669023e-12
2.85519523333307e-12
2.85184324264839e-12
2.84441899398736e-12
2.82883068962168e-12
2.79790220269744e-12
2.7401108762439e-12
2.63877318916403e-12
2.47261644500069e-12
2.2187775055565e-12
1.85867046400193e-12
1.3857088305887e-12
8.12800855141076e-13
1.93936668207578e-13
1.0109140235426e-14
9.49561376038675e-13
4.87873438366115e-11
2.11902524519933e-10
3.64640533836192e-10
4.92054244536952e-10
5.89829443086739e-10
6.59122896307245e-10
7.04603474515745e-10
7.3233342913169e-10
7.48090388671279e-10
7.56462853392492e-10
7.60636846118391e-10
7.62595662958124e-10
7.63463685878441e-10
7.63827924190442e-10
7.63972981284637e-10
7.64027865658137e-10
7.64047559875279e-10
7.64054197597456e-10
7.6405622821856e-10
7.64056722197275e-10
7.64056743021555e-10
7.6405664212495e-10
7.64056533460999e-10
7.64056447571675e-10
7.64056393387721e-10
7.64056371240245e-10
7.64056361663329e-10
7.64056301288856e-10
7.64056031592552e-10
7.64055078312831e-10
7.64052055718786e-10
7.64043150243397e-10
7.6401830443344e-10
7.63952192811748e-10
7.63784112593089e-10
7.63376095800321e-10
7.62432119588861e-10
7.60355807384438e-10
7.56026361744209e-10
7.47494833902249e-10
7.31659120424446e-10
7.0406779836336e-10
6.59098292351518e-10
5.90771946704113e-10
4.9430329275762e-10
3.68101040859593e-10
2.15646311220534e-10
5.03698014534972e-11
9.99270983964171e-13
3.36955545690977e-12
8.76970470145436e-10
2.9899362852201e-07
5.131160959523e-07
6.90467374796704e-07
8.26126637017364e-07
9.22191437457693e-07
9.85321118889434e-07
1.02392209525751e-06
1.04594578096952e-06
1.05770590453696e-06
1.0636012004818e-06
1.06638419690687e-06
1.06762507627097e-06
1.06814909598801e-06
1.06835915642833e-06
1.0684391813622e-06
1.06846811262042e-06
1.06847795472102e-06
1.06848101219994e-06
1.06848178677748e-06
1.06848184872197e-06
1.06848172286657e-06
1.06848157867079e-06
1.06848146266902e-06
1.06848138833823e-06
1.06848135489033e-06
1.06848133497916e-06
1.06848124074575e-06
1.06848083553469e-06
1.06847942604095e-06
1.06847500051733e-06
1.06846204362727e-06
1.06842607910575e-06
1.06833082803459e-06
1.0680897611439e-06
1.06750721328929e-06
1.06616556766914e-06
1.06322796853704e-06
1.0571300125802e-06
1.04516510707051e-06
1.02304393882809e-06
9.84628942757046e-07
9.22165832752462e-07
8.27353030636472e-07
6.93380885362574e-07
5.17592969733393e-07
3.03831080491573e-07
9.02657457222043e-10
3.51755317652017e-12
5.96298017172863e-12
1.5628543315697e-09
5.33851221311159e-07
9.11837642571992e-07
1.22252157893108e-06
1.45888184261844e-06
1.62566774755339e-06
1.73506258417176e-06
1.80190954696634e-06
1.8400606180659e-06
1.86045265480738e-06
1.87069031609187e-06
1.87553217496721e-06
1.87769567379633e-06
1.87861148929012e-06
1.87897956878413e-06
1.87912020229302e-06
1.87917121827732e-06
1.87918865116854e-06
1.87919410848659e-06
1.87919551715542e-06
1.87919565204326e-06
1.87919545111309e-06
1.87919521014242e-06
1.87919501371229e-06
1.87919488591326e-06
1.87919482481341e-06
1.87919478423992e-06
1.87919461888959e-06
1.87919392599926e-06
1.8791915059736e-06
1.8791839072171e-06
1.87916163879795e-06
1.8790997564706e-06
1.87893567064413e-06
1.87851993630856e-06
1.87751431873256e-06
1.87519639373361e-06
1.87011768738328e-06
1.85956906704258e-06
1.83886039955224e-06
1.80055014142936e-06
1.73396367571811e-06
1.62554226961696e-06
1.46059914851935e-06
1.22672738149434e-06
9.18339200793387e-07
5.40841283375578e-07
1.59936843697436e-09
6.17004523294093e-12
8.49510114044264e-12
2.22773381178855e-09
7.58287088805013e-07
1.28962574850006e-06
1.72358113184321e-06
2.05224115403799e-06
2.28349112538981e-06
2.43493361406125e-06
2.52742757466698e-06
2.58023061787968e-06
2.60847834831017e-06
2.62267808013864e-06
2.62940460955239e-06
2.63241590157365e-06
2.63369330442235e-06
2.63420793451102e-06
2.6344050936703e-06
2.63447684742692e-06
2.63450147623798e-06
2.63450924874643e-06
2.63451129481714e-06
2.63451152413211e-06
2.63451127218036e-06
2.63451095408537e-06
2.63451069063282e-06
2.63451051567501e-06
2.63451042554038e-06
2.63451035995085e-06
2.6345101290982e-06
2.63450917709741e-06
2.63450585784554e-06
2.63449544158304e-06
2.63446489576515e-06
2.63437991488158e-06
2.63415429918764e-06
2.63358197278791e-06
2.63219602310935e-06
2.62899827274557e-06
2.62198582229506e-06
2.60741002028439e-06
2.57877625214944e-06
2.52576844735452e-06
2.43355776610782e-06
2.28322851842198e-06
2.05410284705205e-06
1.7283152464663e-06
1.2970014051618e-06
7.66215300933191e-07
2.26945043988967e-09
8.73501152931081e-12
1.08811388466194e-11
2.85393030426482e-09
9.67650522417198e-07
1.6393912702853e-06
2.18504387376812e-06
2.59675017319029e-06
2.88575485862813e-06
3.07479195023952e-06
3.19020920164718e-06
3.25612080894368e-06
3.29141039515653e-06
3.30917133097221e-06
3.31759746580047e-06
3.32137624510371e-06
3.3229824113236e-06
3.32363094466481e-06
3.32388004592074e-06
3.3239709913213e-06
3.32400234805291e-06
3.32401232678166e-06
3.3240150096873e-06
3.32401535977963e-06
3.32401507958489e-06
3.3240147060311e-06
3.32401439059586e-06
3.32401417598303e-06
3.32401405705377e-06
3.32401396384453e-06
3.3240136671306e-06
3.32401247794193e-06
3.32400836041173e-06
3.32399546116056e-06
3.32395763074124e-06
3.3238522977991e-06
3.32357235474891e-06
3.32286144943371e-06
3.32113817460503e-06
3.31715853276993e-06
3.30842462137514e-06
3.29025849297635e-06
3.25455039845716e-06
3.18840722594104e-06
3.07326523238247e-06
2.88536457438279e-06
2.59854226248015e-06
2.18978817432033e-06
1.6468479585583e-06
9.75700924401681e-07
2.89718613109574e-09
1.11364817197565e-11
1.30714730135558e-11
3.42924362793841e-09
1.15863149857997e-06
1.9563748709824e-06
2.60140129870406e-06
3.08657553870616e-06
3.42650988044248e-06
3.6486553349101e-06
3.78426313733122e-06
3.86173493543137e-06
3.90324758657488e-06
3.92416434793995e-06
3.9341016256703e-06
3.93856539798775e-06
3.94046625710747e-06
3.94123540403571e-06
3.94153155976589e-06
3.94164001665981e-06
3.94167757768595e-06
3.94168963008145e-06
3.94169294143522e-06
3.94169343700031e-06
3.94169315534361e-06
3.94169274800307e-06
3.94169239585706e-06
3.94169214978279e-06
3.94169200380527e-06
3.94169187972888e-06
3.94169151439078e-06
3.94169010663669e-06
3.94168528354353e-06
3.94167021613808e-06
3.94162604733295e-06
3.94150300407634e-06
3.94117571499305e-06
3.94034380852325e-06
3.93832543028062e-06
3.93366056698882e-06
3.92341576114405e-06
3.90209453880955e-06
3.86016326657344e-06
3.78245445803595e-06
3.647101653572e-06
3.42604354087537e-06
3.0882013228128e-06
2.6058521470215e-06
1.96342000036047e-06
1.16628980779441e-06
3.4716802484868e-09
1.33304203956053e-11
1.50363494233779e-11
3.94611640527582e-09
1.32927913091741e-06
2.23805803133896e-06
2.97003167891485e-06
3.51920330357485e-06
3.90339937332295e-06
4.15429819850083e-06
4.30744998022998e-06
4.39498149156406e-06
4.44192149457593e-06
4.46559832966733e-06
4.47686165664342e-06
4.48192880801938e-06
4.4840903609961e-06
4.48496672451762e-06
4.48530494704305e-06
4.48542917388404e-06
4.48547238300525e-06
4.48548635851523e-06
4.48549028131955e-06
4.48549094413348e-06
4.48549068566772e-06
4.48549026454353e-06
4.48548988997045e-06
4.4854896204189e-06
4.48548944944414e-06
4.48548929151755e-06
4.48548885523953e-06
4.48548724562572e-06
4.48548180151462e-06
4.48546485798174e-06
4.485415235261e-06
4.48527696599439e-06
4.48490893229357e-06
4.48397272918415e-06
4.48169955420763e-06
4.4764421308271e-06
4.4648889901321e-06
4.44083267857276e-06
4.39350196690635e-06
4.30575115341772e-06
4.15283741833759e-06
3.90294231565615e-06
3.52066395887498e-06
2.97406545366121e-06
2.24444765909291e-06
1.33627078385673e-06
3.98635982006499e-09
1.52912740611689e-11
1.67617599471897e-11
4.40091479710167e-09
1.47882474293484e-06
2.48379184441661e-06
3.29065723622019e-06
3.89476865563545e-06
4.31690322401537e-06
4.59244324087788e-06
4.76064300809353e-06
4.85681760147909e-06
4.90843159302199e-06
4.934492240517e-06
4.9469046936986e-06
4.95249670918552e-06
4.95488600036407e-06
4.95585647926165e-06
4.95623183874812e-06
4.95637008951569e-06
4.95641837601475e-06
4.95643411342208e-06
4.95643862281031e-06
4.95643946731631e-06
4.95643925250919e-06
4.95643883470825e-06
4.95643845017588e-06
4.95643816432777e-06
4.95643797054242e-06
4.95643777697383e-06
4.95643726889331e-06
4.95643547306916e-06
4.95642948501367e-06
4.95641093304566e-06
4.95635666893075e-06
4.95620546474515e-06
4.95580279961307e-06
4.95477782945396e-06
4.95228746798647e-06
4.94652423455225e-06
4.93385294582969e-06
4.90745687547037e-06
4.85550376016483e-06
4.7591512064811e-06
4.59118745681812e-06
4.31656275399948e-06
3.89613862273223e-06
3.29428930951554e-06
2.48947511585e-06
1.48506053306091e-06
4.4383524748761e-09
1.70083887276644e-11
1.82463690783611e-11
4.79319660904197e-09
1.6074501278297e-06
2.69437777468389e-06
3.5647744556652e-06
4.21537962552254e-06
4.66959195471927e-06
4.96597234408139e-06
5.1469139369832e-06
5.25042082620277e-06
5.30600973942296e-06
5.33410365954118e-06
5.34749958819299e-06
5.3535425200891e-06
5.35612829688704e-06
5.35718036672472e-06
5.35758810395643e-06
5.35773867073803e-06
5.35779146450958e-06
5.35780879615544e-06
5.3578138592674e-06
5.35781489227585e-06
5.35781473652673e-06
5.35781433595869e-06
5.35781395169009e-06
5.35781365574695e-06
5.35781344154051e-06
5.35781321192962e-06
5.3578126329307e-06
5.35781066633632e-06
5.35780420503347e-06
5.35778428757507e-06
5.35772611863134e-06
5.35756405966855e-06
5.35713232870484e-06
5.35603277500919e-06
5.3533596833836e-06
5.34717033762116e-06
5.33355604851027e-06
5.30518502445961e-06
5.24932775668868e-06
5.14570680174521e-06
4.9650213734021e-06
4.66948419946071e-06
4.2167799055196e-06
3.56811587749038e-06
2.6994406582155e-06
1.61297471896211e-06
4.8277844635225e-09
1.8483049181641e-11
1.94987431191191e-11
5.12503551759085e-09
1.71607077873479e-06
2.87170262192401e-06
3.79517873272221e-06
4.4845670401219e-06
4.96552919950461e-06
5.27930029704632e-06
5.47088999157142e-06
5.58053702588253e-06
5.63946319746002e-06
5.6692693932806e-06
5.68349638644635e-06
5.68992181847081e-06
5.69267497985061e-06
5.69379689071253e-06
5.6942324997804e-06
5.69439374556324e-06
5.69445048919685e-06
5.69446924385451e-06
5.69447481948689e-06
5.69447604132151e-06
5.69447595643166e-06
5.69447558357989e-06
5.69447520755102e-06
5.69447490668719e-06
5.69447467464616e-06
5.6944744099243e-06
5.69447376265536e-06
5.6944716411258e-06
5.69446477179661e-06
5.6944437076032e-06
5.69438229333734e-06
5.69421124158948e-06
5.69375543576591e-06
5.69259404986735e-06
5.68976928566069e-06
5.68322583499958e-06
5.66882711520225e-06
5.63881196234758e-06
5.57970275327582e-06
5.47002547735971e-06
5.2787372842643e-06
4.96576640581079e-06
4.48613962232156e-06
3.79839520973639e-06
2.87631543272112e-06
1.72101531739841e-06
5.15711966926283e-09
1.97257360474294e-11
2.05348314413024e-11
5.4004081493547e-09
1.80614488833965e-06
3.01843252793943e-06
3.98557821985325e-06
4.7068464108527e-06
5.20980156695402e-06
5.5378856684514e-06
5.73825392099763e-06
5.8529744118041e-06
5.91466555897693e-06
5.94589483588236e-06
5.96081495132174e-06
5.96756063258321e-06
5.9704545382235e-06
5.97163545727782e-06
5.97209474795351e-06
5.9722651326263e-06
5.97232529190718e-06
5.9723452990032e-06
5.97235134066129e-06
5.97235274600057e-06
5.97235273860617e-06
5.97235240050618e-06
5.97235203852515e-06
5.9723517369149e-06
5.97235148975405e-06
5.9723511919963e-06
5.97235048073047e-06
5.97234822070265e-06
5.97234100355994e-06
5.97231898787747e-06
5.97225491133686e-06
5.97207650995136e-06
5.97160103802216e-06
5.97038910619765e-06
5.96744021893122e-06
5.96060666765755e-06
5.94556470755074e-06
5.9142003984314e-06
5.8524213823658e-06
5.73777048513022e-06
5.53777358538147e-06
5.21048132489548e-06
4.70873224434231e-06
3.98885467397325e-06
3.02280460632356e-06
1.81068573323408e-06
5.43056419186639e-09
2.07536466106731e-11
2.13756474252396e-11
5.62462274738655e-09
1.87950038671273e-06
3.13774501206082e-06
4.14026250998133e-06
4.88734667069433e-06
5.40812316815319e-06
5.74782111874357e-06
5.95532621935047e-06
6.07418132341886e-06
6.13813218173008e-06
6.17052823276062e-06
6.1860186662627e-06
6.19302889256444e-06
6.19603956423574e-06
6.197269675058e-06
6.19774881901069e-06
6.19792691993285e-06
6.19798999283226e-06
6.19801108672146e-06
6.1980175448685e-06
6.19801912331762e-06
6.19801919533596e-06
6.19801889595458e-06
6.19801855190402e-06
6.19801825281782e-06
6.19801799332492e-06
6.19801766552928e-06
6.19801689592323e-06
6.19801451430901e-06
6.19800700465393e-06
6.19798420987321e-06
6.19791797944061e-06
6.1977336566367e-06
6.19724235184715e-06
6.19598970225206e-06
6.19294072673167e-06
6.18587301192407e-06
6.17031139004111e-06
6.1378564015304e-06
6.07391810904541e-06
5.95524364450568e-06
5.74820073909472e-06
5.40932057299166e-06
4.8896687275156e-06
4.14377522971655e-06
3.14208866482679e-06
1.88382563659791e-06
5.65351980431148e-09
2.15884534737956e-11
2.20451382993107e-11
5.80378429172486e-09
1.93817603513274e-06
3.23308765766157e-06
4.26380748431448e-06
5.03148129381478e-06
5.56648625147919e-06
5.91547192662034e-06
6.12869670251422e-06
6.25087395435352e-06
6.31664586873293e-06
6.34998532206037e-06
6.36593857633212e-06
6.37316434251831e-06
6.37627056620848e-06
6.37754112743738e-06
6.37803668876506e-06
6.37822121572083e-06
6.37828673949617e-06
6.37830876263606e-06
6.37831558635978e-06
6.37831732397186e-06
6.37831747397848e-06
6.37831721464225e-06
6.3783168907694e-06
6.37831659668669e-06
6.37831632764629e-06
6.37831597349348e-06
6.37831515223628e-06
6.37831266605579e-06
6.37830491415149e-06
6.37828149054358e-06
6.37821354287518e-06
6.37802452010952e-06
6.37752065983821e-06
6.37623570528295e-06
6.37310724748354e-06
6.36585339959059e-06
6.3498783641951e-06
6.31655514393546e-06
6.25089723557111e-06
6.12901769806023e-06
5.91636156484272e-06
5.56824949460663e-06
5.03433343587843e-06
4.26770474959137e-06
3.23759230023871e-06
1.94246080102217e-06
5.83207991443201e-09
2.22542871023682e-11
2.2568300444425e-11
5.94431275702576e-09
1.98427980434772e-06
3.30796562691431e-06
4.36081685409119e-06
5.14466091020253e-06
5.69085605384674e-06
6.04716019623628e-06
6.26490252092752e-06
6.38971088737459e-06
6.45692953158522e-06
6.4910210371042e-06
6.50734462139625e-06
6.51474355601414e-06
6.51792688818455e-06
6.51923025211449e-06
6.51973920203396e-06
6.5199290063099e-06
6.51999656263685e-06
6.52001936842869e-06
6.52002650725373e-06
6.52002838817685e-06
6.52002861252267e-06
6.52002839210246e-06
6.52002808931588e-06
6.52002780204096e-06
6.52002752615904e-06
6.52002714975893e-06
6.5200262841704e-06
6.52002371008131e-06
6.52001576096523e-06
6.51999183761792e-06
6.51992254175999e-06
6.51972984600079e-06
6.51921618361361e-06
6.51790599781441e-06
6.51471540695129e-06
6.50731591934553e-06
6.4910171475157e-06
6.45701360826133e-06
6.39000769211139e-06
6.26561508388763e-06
6.0485571983201e-06
5.69320542761057e-06
5.14810251121356e-06
4.36520791533288e-06
3.31278197655259e-06
1.98867029201469e-06
5.97258118340611e-09
2.2775983237794e-11
2.29696214512547e-11
6.05253855702214e-09
2.0198705919617e-06
3.3657657765063e-06
4.435709067236e-06
5.23205667645423e-06
5.78691955929989e-06
6.14890473962e-06
6.37016280119139e-06
6.49702475092623e-06
6.56537621749406e-06
6.60005868479001e-06
6.61667439400876e-06
6.62421049589128e-06
6.62745518102683e-06
6.62878477441869e-06
6.62930449064595e-06
6.6294985682146e-06
6.62956778621357e-06
6.62959124130605e-06
6.62959864633152e-06
6.6296006545011e-06
6.62960094917816e-06
6.6296007636245e-06
6.62960048177295e-06
6.62960020255931e-06
6.62959992240418e-06
6.6295995280554e-06
6.62959862568133e-06
6.62959597951779e-06
6.6295878728779e-06
6.62956355894898e-06
6.62949322160487e-06
6.62929770126806e-06
6.62877650862718e-06
6.62744693154852e-06
6.62420854697022e-06
6.61669692702427e-06
6.60014869849949e-06
6.56562060394701e-06
6.49757485437011e-06
6.37124317461289e-06
6.15078845347945e-06
5.78984943224781e-06
5.23611231614491e-06
4.44066053148942e-06
3.37099901820752e-06
2.02447621086821e-06
6.0812308441887e-09
2.31776575389038e-11
2.32719079129046e-11
6.1343930830013e-09
2.04686800099751e-06
3.40962375870027e-06
4.49255709189591e-06
5.29842277510136e-06
5.85989718772997e-06
6.2262261166262e-06
6.45017969868382e-06
6.57862096057731e-06
6.64784656552797e-06
6.68298671968733e-06
6.69982956886265e-06
6.70747277811266e-06
6.71076559057403e-06
6.71211586247347e-06
6.71264411485037e-06
6.71284160403401e-06
6.71291216114939e-06
6.71293614695311e-06
6.71294377357255e-06
6.71294589155172e-06
6.71294624718966e-06
6.71294609624206e-06
6.7129458346032e-06
6.71294556428061e-06
6.71294528222872e-06
6.71294487419626e-06
6.71294394244032e-06
6.71294123882306e-06
6.71293300901314e-06
6.71290839530447e-06
6.71283726705856e-06
6.71263961078512e-06
6.71211272889034e-06
6.71076849426323e-06
6.70749394967448e-06
6.6998974095614e-06
6.68316010087634e-06
6.64823414065958e-06
6.57939930740747e-06
6.45159567196173e-06
6.22856189444654e-06
5.86338021288787e-06
5.3030858845191e-06
4.49809518992946e-06
3.41533393591622e-06
2.0517600730111e-06
6.16382437286282e-09
2.34816505084168e-11
2.34955113538303e-11
6.19519964065727e-09
2.06699153286811e-06
3.44233575082016e-06
4.53498299979295e-06
5.34798028024439e-06
5.91441994938784e-06
6.28401960754878e-06
6.51000880608682e-06
6.63964659952651e-06
6.70953681115419e-06
6.74502626893282e-06
6.76204317780553e-06
6.76976882308262e-06
6.77309885072778e-06
6.77446519415035e-06
6.77500011902651e-06
6.77520029347678e-06
6.77527191441703e-06
6.77529632769386e-06
6.77530413675352e-06
6.77530634678986e-06
6.77530675585208e-06
6.77530663660829e-06
6.7753063940124e-06
6.77530613309241e-06
6.77530585128712e-06
6.77530543362893e-06
6.77530447946941e-06
6.77530173153434e-06
6.77529340774984e-06
6.77526856857741e-06
6.77519685078808e-06
6.77499760799556e-06
6.77446650262465e-06
6.7731113792637e-06
6.76980994314693e-06
6.76215018005906e-06
6.74527196569136e-06
6.71004927833878e-06
6.64062560090029e-06
6.51172307091721e-06
6.28676332140182e-06
5.91841263665761e-06
5.35321941072637e-06
4.54109992848899e-06
3.4485432982388e-06
2.07220681860826e-06
6.22555687643623e-09
2.37078449670321e-11
2.36579190227634e-11
6.23955785845901e-09
2.08172718475535e-06
3.46631158279561e-06
4.56610337409101e-06
5.38435802387461e-06
5.95446752285706e-06
6.32649151064297e-06
6.55399429515883e-06
6.68452481951149e-06
6.75491272895879e-06
6.79066480541509e-06
6.80781313319935e-06
6.81560130043085e-06
6.81895968925607e-06
6.82033834449806e-06
6.82087841081064e-06
6.82108066884347e-06
6.82115312290833e-06
6.82117787554807e-06
6.82118583282218e-06
6.82118811935664e-06
6.82118857412201e-06
6.82118848300321e-06
6.82118825809846e-06
6.82118800686285e-06
6.82118772719231e-06
6.82118730361728e-06
6.82118633339126e-06
6.82118355263598e-06
6.82117515925162e-06
6.82115015451298e-06
6.8210780065076e-06
6.82087760860952e-06
6.82034342778586e-06
6.81898036619607e-06
6.81565929703446e-06
6.80795331189237e-06
6.79097195771971e-06
6.75553185776763e-06
6.68567639633917e-06
6.55596759356246e-06
6.3295940857801e-06
5.95891632640529e-06
5.39012442662123e-06
4.5727659155092e-06
3.47300590819976e-06
2.08727439749382e-06
6.27092073670727e-09
2.38733191414835e-11
2.37736436034205e-11
6.27130579603782e-09
2.09231693914567e-06
3.483562366543e-06
4.58851708185865e-06
5.41058103158798e-06
5.98335724923976e-06
6.35714843157167e-06
6.58575828404617e-06
6.71694416623466e-06
6.78769887618523e-06
6.82364531394919e-06
6.8408913373445e-06
6.84872620260415e-06
6.85210588108105e-06
6.85349382840891e-06
6.85403779852673e-06
6.85424164994715e-06
6.85431474717756e-06
6.85433976542382e-06
6.85434784124134e-06
6.85435019032888e-06
6.85435068375516e-06
6.85435061771961e-06
6.85435040915784e-06
6.85435016774125e-06
6.85434989182156e-06
6.85434946561169e-06
6.85434848488781e-06
6.85434568113949e-06
6.85433723818029e-06
6.85431211553011e-06
6.85423966178762e-06
6.85403844308094e-06
6.85350207355209e-06
6.85213335038618e-06
6.84879824787834e-06
6.84105915760554e-06
6.82400380538635e-06
6.78840749923702e-06
6.71824145135681e-06
6.58795214960164e-06
6.36055999926132e-06
5.98820446107228e-06
5.41681642632676e-06
4.59567594118059e-06
3.49071164919353e-06
2.09818461337719e-06
6.30367436091735e-09
2.39922710750133e-11
2.38543305454383e-11
6.29353959782691e-09
2.09976533833421e-06
3.49571380697163e-06
4.60432455851072e-06
5.42909435476243e-06
6.00377104483861e-06
6.37882607417085e-06
6.60823065942604e-06
6.73988890804855e-06
6.81090913961657e-06
6.84699691668895e-06
6.86431432801262e-06
6.87218349058732e-06
6.87557888971027e-06
6.87697373822504e-06
6.87752062630057e-06
6.87772567779974e-06
6.87779926432093e-06
6.87782448759987e-06
6.87783265693532e-06
6.87783505662146e-06
6.87783558265862e-06
6.87783553885381e-06
6.87783534532196e-06
6.87783511374318e-06
6.8778348429181e-06
6.87783441687313e-06
6.87783343039869e-06
6.87783061186349e-06
6.877822135558e-06
6.87779693257642e-06
6.87772426961054e-06
6.87752248706947e-06
6.87698460769146e-06
6.87561196238624e-06
6.87226710033064e-06
6.86450490929097e-06
6.84739777414924e-06
6.81169189837246e-06
6.74130756829638e-06
6.6106096361075e-06
6.38249948143985e-06
6.00895999317052e-06
5.43573806079536e-06
4.6119232430608e-06
3.50327460247395e-06
2.10592977801905e-06
6.32686324215099e-09
2.40761382221421e-11
2.39090005965257e-11
6.30866982377629e-09
2.10485705011806e-06
3.5040359280959e-06
4.61516715938822e-06
5.44180940534519e-06
6.01780641067882e-06
6.3937431428809e-06
6.62370463323392e-06
6.75569546559895e-06
6.82690358889967e-06
6.86309191453252e-06
6.88046039549319e-06
6.88835423789246e-06
6.89176101923311e-06
6.89316089730948e-06
6.89370992743309e-06
6.89391586749067e-06
6.89398982044602e-06
6.89401519988952e-06
6.89402344229133e-06
6.89402588273085e-06
6.89402643617024e-06
6.89402641191614e-06
6.89402623218747e-06
6.89402601039008e-06
6.89402574572934e-06
6.89402532215306e-06
6.89402433384921e-06
6.8940215072459e-06
6.89401301063075e-06
6.8939877569226e-06
6.89391495970143e-06
6.89371281119488e-06
6.89317394190507e-06
6.89179870201213e-06
6.88844733384718e-06
6.88066964251741e-06
6.86352757331452e-06
6.82774744780551e-06
6.75721465261008e-06
6.62623794167446e-06
6.39763670023608e-06
6.02328568756375e-06
5.4488043354334e-06
4.623149648297e-06
3.51196165178171e-06
2.11128949403723e-06
6.34287409915583e-09
2.41338364058649e-11
2.39443541766189e-11
6.31849556370828e-09
2.10817982124557e-06
3.50948065465325e-06
4.62227595788159e-06
5.45016077813337e-06
6.02703861572756e-06
6.40356686870635e-06
6.63390421167512e-06
6.76612093286643e-06
6.83745752793033e-06
6.87371508667963e-06
6.89111898997528e-06
6.89903008119747e-06
6.90244488083178e-06
6.90384833172821e-06
6.90439889745943e-06
6.90460548144313e-06
6.90467970380834e-06
6.90470520056423e-06
6.90471349967492e-06
6.90471597295178e-06
6.90471654942001e-06
6.9047165423526e-06
6.90471637532491e-06
6.90471616318204e-06
6.90471590548704e-06
6.90471548618908e-06
6.90471449918101e-06
6.90471166989559e-06
6.9047031634244e-06
6.90467788258815e-06
6.90460501038491e-06
6.90440265114023e-06
6.90386319703732e-06
6.90248639087489e-06
6.89913102419718e-06
6.89134366574693e-06
6.87417954622737e-06
6.83835209374525e-06
6.76772390758393e-06
6.63656690116419e-06
6.40764633792368e-06
6.03276525542339e-06
5.45745808779368e-06
4.63059279920238e-06
3.51772845665398e-06
2.11485234984356e-06
6.35350475013483e-09
2.4172051204617e-11
2.39650782702433e-11
6.32428079529962e-09
2.11014812538625e-06
3.51272003769271e-06
4.6265209995399e-06
5.45516334850156e-06
6.03258303536157e-06
6.40947863188128e-06
6.64005174494004e-06
6.7724116845552e-06
6.84383064711428e-06
6.8801331043294e-06
6.89756025275073e-06
6.90548280094991e-06
6.9089029927288e-06
6.91030887722639e-06
6.91086050344362e-06
6.91106753934181e-06
6.91114195484782e-06
6.91116753835132e-06
6.91117588129204e-06
6.91117838115936e-06
6.91117897716825e-06
6.91117898534931e-06
6.91117883008768e-06
6.91117862742146e-06
6.91117837723137e-06
6.91117796353787e-06
6.91117698020606e-06
6.9111741524829e-06
6.91116564461933e-06
6.91114035606931e-06
6.91106745777515e-06
6.91086501515732e-06
6.91032530591925e-06
6.90894776306766e-06
6.90559040415434e-06
6.89779801071753e-06
6.88062200426369e-06
6.84476834052595e-06
6.77408618323014e-06
6.64282541469157e-06
6.41371854013475e-06
6.03852470774607e-06
5.46272575151269e-06
4.6351337670818e-06
3.52125592485123e-06
2.11703813324079e-06
6.36003538538993e-09
2.41955275039696e-11
2.39741120186158e-11
6.32682132370885e-09
2.11102391202751e-06
3.51417956098315e-06
4.62845392503868e-06
5.45746151994402e-06
6.03514886518915e-06
6.41223050551618e-06
6.64292615293495e-06
6.77536253772292e-06
6.8468266866116e-06
6.88315444246115e-06
6.90059504573146e-06
6.90852440515472e-06
6.91194788919185e-06
6.91335530073006e-06
6.91390761255071e-06
6.91411495139908e-06
6.91418950294014e-06
6.91421515194396e-06
6.91422353094022e-06
6.9142260543489e-06
6.91422666853425e-06
6.91422669137329e-06
6.91422654756754e-06
6.91422635419247e-06
6.91422611142741e-06
6.91422570343167e-06
6.91422472428336e-06
6.91422189977994e-06
6.9142133954858e-06
6.91418811357598e-06
6.91411522945659e-06
6.91391281272816e-06
6.91337313393092e-06
6.91199557072423e-06
6.90863793822034e-06
6.90084444108436e-06
6.88366509445127e-06
6.84780282668735e-06
6.77710097745931e-06
6.64579937650502e-06
6.41661496192713e-06
6.04128529681196e-06
5.46526549443659e-06
4.63733821184369e-06
3.52298182527526e-06
2.11811715860008e-06
6.36329031921681e-09
2.4207316693777e-11
2.39728347368502e-11
6.32649240827831e-09
2.11093167946247e-06
3.51406256414406e-06
4.62833945815486e-06
5.45736564136352e-06
6.03507874352554e-06
6.412186844269e-06
6.64290565083599e-06
6.77536008644771e-06
6.84683702302521e-06
6.88317310664655e-06
6.90061874335635e-06
6.9085509457565e-06
6.91197594302049e-06
6.91338412153449e-06
6.91393680940943e-06
6.91414433140087e-06
6.91421897541224e-06
6.91424467554194e-06
6.91425308672407e-06
6.9142556331084e-06
6.91425626576427e-06
6.91425630366165e-06
6.91425617142613e-06
6.91425598707454e-06
6.91425575108943e-06
6.91425534782898e-06
6.91425437183467e-06
6.91425155020099e-06
6.9142430520043e-06
6.9142177882615e-06
6.91414495526869e-06
6.91394266893926e-06
6.91340329595552e-06
6.91202639982178e-06
6.90867012716712e-06
6.90087922139181e-06
6.88370447923481e-06
6.84784980565502e-06
6.7771595081942e-06
6.64587396757487e-06
6.41670967285453e-06
6.04140211555141e-06
5.46540224304397e-06
4.63748624425255e-06
3.52312370486849e-06
2.11822426421539e-06
6.36368251758075e-09
2.42089539420162e-11
2.39611785982757e-11
6.32327800562542e-09
2.10986722697334e-06
3.51236357308473e-06
4.62617212511544e-06
5.4548710896851e-06
6.03236940532746e-06
6.4093459341722e-06
6.63999000094642e-06
6.77240532342993e-06
6.84386356196171e-06
6.88019162794608e-06
6.89763425968025e-06
6.90556555546707e-06
6.90899040281326e-06
6.91039864534874e-06
6.91095142585712e-06
6.91115902213973e-06
6.91123371909917e-06
6.91125945709582e-06
6.91126789659482e-06
6.9112704650473e-06
6.91127111604733e-06
6.91127116899492e-06
6.91127104814839e-06
6.91127087240141e-06
6.91127064253461e-06
6.91127024319634e-06
6.91126926967392e-06
6.91126645123161e-06
6.91125796295244e-06
6.91123273156996e-06
6.91115999244602e-06
6.91095795383065e-06
6.91041918991601e-06
6.9090437066697e-06
6.90569054323718e-06
6.89790613991826e-06
6.88074432133965e-06
6.84491403835041e-06
6.77426740765611e-06
6.64305596006358e-06
6.41401075265239e-06
6.03888449424605e-06
5.46314618264604e-06
4.63558810728572e-06
3.52169065415039e-06
2.11736569688209e-06
6.36123391113058e-09
2.42005302075216e-11
2.39376505335667e-11
6.31677534892369e-09
2.10769841873109e-06
3.50886897129427e-06
4.62167666560883e-06
5.44965847375569e-06
6.02667176121044e-06
6.40334000121642e-06
6.63380048901268e-06
6.7661136063162e-06
6.83751871984052e-06
6.87382103179768e-06
6.8912520279523e-06
6.89917843802886e-06
6.9026013924429e-06
6.90400897164437e-06
6.90456155497688e-06
6.90476911514978e-06
6.90484382487288e-06
6.90486958682752e-06
6.90487805009183e-06
6.90488063907884e-06
6.90488130774667e-06
6.90488137528348e-06
6.9048812653415e-06
6.90488109766368e-06
6.90488087332877e-06
6.9048804773918e-06
6.90487950624494e-06
6.90487669238701e-06
6.90486821993462e-06
6.9048430396317e-06
6.904770447655e-06
6.90456879929695e-06
6.90403100766009e-06
6.90265782175004e-06
6.89930982550157e-06
6.89153649308073e-06
6.87439725252103e-06
6.83861073729347e-06
6.76804462591667e-06
6.6369735556169e-06
6.40816003199335e-06
6.03339561164259e-06
5.45819222303851e-06
4.63138351898902e-06
3.51848263614588e-06
2.11541886785712e-06
6.3555764715932e-09
2.41807143474068e-11
2.38992212984977e-11
6.30616758589997e-09
2.10415762926385e-06
3.50314531966937e-06
4.61429284086682e-06