/*--------------------------------*- C++ -*----------------------------------*\
  =========                 |
  \\      /  F ield         | OpenFOAM: The Open Source CFD Toolbox
   \\    /   O peration     | Website:  https://openfoam.org
    \\  /    A nd           | Version:  10
     \\/     M anipulation  |
\*---------------------------------------------------------------------------*/
FoamFile
{
    format      ascii;
    class       volScalarField;
    location    "6";
    object      h;
}
// * * * * * * * * * * * * * * * * * * * * * * * * * * * * * * * * * * * * * //

dimensions      [0 2 -2 0 0 0 0];

internalField   nonuniform List<scalar> 
2500
(
6490.82613909355
6483.15642659624
6469.3392791745
6459.88668207017
6454.42157932912
6451.44478906226
6449.87922752251
6449.08398172553
6448.69645700636
6448.51700935283
6448.4364969952
6448.40215653869
6448.38806967857
6448.38188613547
6448.37895350402
6448.37712352232
6448.37626283845
6448.37542877796
6448.3745589686
6448.37395336328
6448.37343895438
6448.37299386276
6448.37262745197
6448.37240065414
6448.37216851647
6448.37197097525
6448.3718975434
6448.37186763042
6448.37189527071
6448.37199668399
6448.3721779189
6448.37251709019
6448.37293492282
6448.37350206924
6448.37430517511
6448.37569084438
6448.37853502923
6448.38485088973
6448.4005520848
6448.43707141844
6448.52086133098
6448.70612493855
6449.09876128612
6449.89581802732
6451.4559323699
6454.41162134782
6459.85854426923
6469.35361619984
6483.29459413759
6490.70498410765
5476.66876487568
5440.51095902193
5400.90905156698
5374.15192609331
5358.21347655122
5349.19786795831
5344.262742459
5341.65622608247
5340.33765787173
5339.70222062437
5339.41030958526
5339.2827456744
5339.22960823472
5339.20815694118
5339.19964353391
5339.1961285839
5339.19471962434
5339.19392532272
5339.19330851658
5339.19287329264
5339.19250389627
5339.19216784981
5339.19188315945
5339.19169278011
5339.19152347072
5339.19137699654
5339.19130447053
5339.19125961609
5339.19123801622
5339.19127422585
5339.1913674574
5339.19157116105
5339.19198725474
5339.19275318144
5339.19428198928
5339.19798387851
5339.20739589068
5339.23099167897
5339.28878435045
5339.42401023919
5339.72743709602
5340.37800299639
5341.70976582917
5344.31726207364
5349.22671512133
5358.18449293381
5374.0902353155
5401.00895949343
5441.05250188431
5476.32090317045
4467.81770861328
4408.54088189858
4353.87431547623
4318.03222901318
4296.86434173666
4284.93355473961
4278.41010563812
4274.96185959283
4273.21317038862
4272.367055447
4271.97704956257
4271.80598291796
4271.7345287161
4271.70591553244
4271.69484960058
4271.69063253643
4271.6890719947
4271.68839458119
4271.68799262679
4271.68772637575
4271.68749807383
4271.68727471886
4271.68707564096
4271.68693922814
4271.68683022964
4271.68673415805
4271.68667912923
4271.68663563543
4271.68659374526
4271.68658285875
4271.68659974286
4271.68670075621
4271.68707446899
4271.68788259247
4271.68966890267
4271.69433774612
4271.70663862508
4271.73796083964
4271.81474549149
4271.99469343356
4272.39797530426
4273.26093254754
4275.02417945568
4278.47275994472
4284.96666997602
4296.84015388245
4318.01160220927
4354.16852434644
4409.65749445253
4468.44960860523
3598.97973310376
3531.69887069757
3477.39830633365
3443.16642856318
3423.57424306418
3412.8460532321
3407.12782343927
3404.16818332518
3402.69225336779
3401.98747304145
3401.66609830004
3401.52637276244
3401.46846463003
3401.44550066589
3401.43675334034
3401.43353249713
3401.43240105546
3401.43197342832
3401.43176286437
3401.43163320909
3401.43151619197
3401.43138627333
3401.43126012547
3401.43117280592
3401.43111068977
3401.43105532292
3401.43102042232
3401.43098692882
3401.4309451434
3401.43092112817
3401.43090242928
3401.43089866828
3401.4311383791
3401.43173630978
3401.43304030616
3401.43658022092
3401.44613749561
3401.47087132921
3401.5322449192
3401.67786550784
3402.00831792519
3402.72509741253
3404.21247468755
3407.17513256444
3412.87817937624
3423.58285025944
3443.24120693206
3477.9025308597
3533.28746455657
3601.02424419623
2935.78214502773
2874.50720051888
2829.76428602015
2802.63958408972
2787.61645459663
2779.63461872507
2775.48998430084
2773.38889074111
2772.35727026315
2771.87015586507
2771.64981917822
2771.5545713731
2771.51527369939
2771.49977030426
2771.4939195133
2771.49181791863
2771.49111764548
2771.49088701232
2771.49079698621
2771.49075121391
2771.49070661946
2771.4906430631
2771.49057130179
2771.49052124567
2771.49049116432
2771.49046433431
2771.49044553236
2771.49042357831
2771.49039146516
2771.49036579645
2771.49033364308
2771.49028599588
2771.49041668522
2771.49078855469
2771.4915952268
2771.49386853939
2771.50012161246
2771.51649245701
2771.55749005727
2771.65566057095
2771.88061905649
2772.37410220468
2773.41224018626
2775.51602389133
2779.65546297045
2787.63816453234
2802.75919590013
2830.33516505303
2876.23959232571
2938.76057265798
2479.75572656143
2432.16032622895
2400.10420633462
2381.38020479808
2371.33569050641
2366.15323155236
2363.52932919136
2362.2249604087
2361.59337610114
2361.29788498836
2361.16498476864
2361.10772124658
2361.08414244926
2361.07486255733
2361.07138275736
2361.07015819607
2361.0697728921
2361.06966348201
2361.06963298399
2361.06963018123
2361.06962646765
2361.06960340115
2361.06956704417
2361.06954156787
2361.06953049556
2361.06952039605
2361.06951177509
2361.06949919937
2361.06947828285
2361.06945712368
2361.06942586181
2361.06937331799
2361.06943296362
2361.06963301045
2361.0700746584
2361.07137767459
2361.07501576249
2361.08461726812
2361.10882367897
2361.16716128008
2361.30180023646
2361.599779196
2362.23394417035
2363.53924406333
2366.16142434427
2371.35274198588
2381.48987084044
2400.60324084838
2433.70757238149
2482.88189153905
2193.76026231417
2161.15764125214
2140.64493095892
2129.07390923638
2123.05164471763
2120.02980219478
2118.53619476373
2117.80723935944
2117.45865778745
2117.29679564673
2117.22427508257
2117.19307025109
2117.18022372523
2117.17517099336
2117.17328552711
2117.17263330259
2117.17244010803
2117.17240272881
2117.17240467632
2117.17240798291
2117.17241252186
2117.17241065022
2117.17239445109
2117.1723833547
2117.17238216976
2117.17237981241
2117.17237650041
2117.1723703133
2117.1723581908
2117.1723433216
2117.17231947208
2117.17227910607
2117.17229973103
2117.17239290251
2117.17261231562
2117.17329692568
2117.17523037729
2117.18035915389
2117.19334898245
2117.22478416735
2117.29768579398
2117.46010736306
2117.80911820437
2118.53755848682
2120.02961475168
2123.05859889747
2129.1485589374
2141.00664245566
2162.33805544451
2196.4302014627
2028.52224912697
2008.40059083191
1996.46312593033
1989.9449443593
1986.64744974911
1985.03564434481
1984.2569576007
1983.88346168095
1983.70687808486
1983.6253913036
1983.58896944534
1983.5732963539
1983.56683668943
1983.56429490078
1983.56335038135
1983.5630289904
1983.56294373378
1983.5629364858
1983.56294307767
1983.56294966766
1983.56295374866
1983.5629552414
1983.56295074608
1983.56294754074
1983.56294983442
1983.56295002571
1983.56294892218
1983.56294613013
1983.56293963356
1983.56293034269
1983.56291495186
1983.56289165746
1983.5628923208
1983.56292720379
1983.56303051543
1983.56336543562
1983.56431924071
1983.56685683012
1983.57330217464
1983.58893321369
1983.62528445723
1983.70665344708
1983.88287374297
1984.25526475359
1985.03200231335
1986.64687781511
1989.98527795496
1996.68925920095
2009.19213099129
2030.48247615439
1939.8288719974
1928.46823973646
1922.0654834378
1918.67402885866
1917.00327013423
1916.20644541758
1915.82974165844
1915.65201680136
1915.56887025093
1915.53070134234
1915.51366329482
1915.506323015
1915.5032914388
1915.502097276
1915.50165521438
1915.50150811872
1915.50147360493
1915.50147462749
1915.50148085977
1915.50148648949
1915.50148934272
1915.50149072316
1915.50149080118
1915.50149141118
1915.50149335613
1915.50149422213
1915.50149395478
1915.50149254098
1915.50148924214
1915.50148394587
1915.50147509427
1915.50146254481
1915.50145903803
1915.50147024069
1915.50151446583
1915.50166834691
1915.50210992008
1915.50328661454
1915.50627932771
1915.51354000017
1915.53044141346
1915.56838316811
1915.65106471186
1915.82772445435
1916.20250462321
1916.99951134234
1918.69131517775
1922.19042748559
1928.94441223372
1941.10547637389
1895.28250831432
1889.34699684341
1886.14895481208
1884.50240366333
1883.71113516291
1883.3423613565
1883.17157729952
1883.09226910646
1883.05553092546
1883.03874161981
1883.03125070566
1883.02801720018
1883.02667809303
1883.0261498711
1883.0259550603
1883.02589204512
1883.02587917639
1883.02588133829
1883.0258855903
1883.02588930747
1883.02589160892
1883.02589299769
1883.02589358613
1883.02589437538
1883.02589564239
1883.02589637354
1883.02589632449
1883.02589560448
1883.02589400425
1883.02589120856
1883.02588655791
1883.02588023982
1883.02587758834
1883.02588028843
1883.02589752815
1883.02596440191
1883.02615780623
1883.02667371935
1883.02798582888
1883.03116551321
1883.03856211356
1883.05518749511
1883.09158788074
1883.17012293179
1883.33939225536
1883.70716190927
1884.50772083188
1886.2109344431
1889.60794849741
1896.03527663774
1874.21791850761
1871.3221375873
1869.82221341901
1869.07017360132
1868.7170697759
1868.55602486825
1868.48289160767
1868.44944483139
1868.43409681103
1868.42711050222
1868.4239930294
1868.42264395707
1868.42208348791
1868.42186207101
1868.42178071397
1868.42175529284
1868.42175090609
1868.42175242906
1868.42175487111
1868.42175698655
1868.42175842134
1868.42175933921
1868.42175985788
1868.42176044855
1868.42176115332
1868.42176159113
1868.42176158349
1868.42176123304
1868.42176048572
1868.42175910512
1868.42175683694
1868.42175384404
1868.42175240979
1868.42175274228
1868.42175897737
1868.42178649915
1868.4218671412
1868.42208250472
1868.42262957267
1868.42395201179
1868.4270216849
1868.43391978374
1868.44907289758
1868.48204621415
1868.55417126424
1868.71409396526
1869.07065844524
1869.85008859905
1871.4539644029
1874.6257347897
1864.78944410035
1863.46045131405
1862.79537204205
1862.47006571891
1862.3206124259
1862.25381846787
1862.22404738753
1862.21063156691
1862.2045312344
1862.20176435882
1862.20052903359
1862.19999289486
1862.19976939164
1862.19968096085
1862.19964858157
1862.19963880315
1862.19963745586
1862.19963834765
1862.1996396016
1862.1996406855
1862.1996414568
1862.19964196994
1862.19964230287
1862.19964265129
1862.19964300176
1862.19964322232
1862.19964322223
1862.19964305998
1862.19964272009
1862.19964207719
1862.19964103926
1862.19963969427
1862.19963894601
1862.19963882273
1862.19964100857
1862.19965179536
1862.19968397711
1862.19977005299
1862.19998821593
1862.20051367756
1862.20172922574
1862.20445644685
1862.21045938646
1862.22361835939
1862.25279908318
1862.31875834644
1862.4692220406
1862.80679196891
1863.52242025814
1864.99467747405
1860.77604323956
1860.19876667901
1859.91838749125
1859.78437232957
1859.72404496106
1859.69759185085
1859.68600882009
1859.68086328287
1859.67854423317
1859.6774959111
1859.67702747908
1859.67682353377
1859.67673820942
1859.67670439997
1859.67669206902
1859.67668846657
1859.67668810098
1859.67668855845
1859.67668914913
1859.67668966026
1859.67669003577
1859.67669029329
1859.67669047305
1859.67669065053
1859.67669081026
1859.67669090854
1859.67669090922
1859.67669083847
1859.67669068863
1859.67669040512
1859.67668995638
1859.67668938164
1859.67668901782
1859.67668888451
1859.6766896267
1859.67669368818
1859.67670603667
1859.67673912714
1859.67682273702
1859.67702320143
1859.6774848519
1859.67851772608
1859.68079297802
1859.68581164863
1859.6970823969
1859.72302565092
1859.78351147119
1859.92264490932
1860.2260796225
1860.87281858292
1859.14466440548
1858.90610831513
1858.79319624293
1858.74036818124
1858.71703690659
1858.70698732074
1858.70266039073
1858.70076464027
1858.69991762314
1858.69953594562
1858.69936522518
1858.69929065148
1858.69925933827
1858.69924691238
1858.69924240442
1858.69924113919
1858.69924105259
1858.69924125267
1858.69924151105
1858.69924173553
1858.6992419044
1858.69924202308
1858.6992421093
1858.69924219065
1858.69924225833
1858.6992422994
1858.69924229985
1858.69924226939
1858.69924220581
1858.69924208716
1858.69924190303
1858.69924166916
1858.69924150551
1858.69924142729
1858.69924167247
1858.69924314936
1858.69924772447
1858.69926000697
1858.69929092369
1858.69936465903
1858.69953355275
1858.6999099746
1858.70073886499
1858.70257652866
1858.70675146179
1858.71652719569
1858.73979824751
1858.79462667929
1858.91746608754
1859.18772185592
1858.50911736333
1858.41491578969
1858.37130493407
1858.3512992555
1858.34261991698
1858.3389433654
1858.33738538108
1858.33671181362
1858.3364134046
1858.33627934895
1858.33621932068
1858.33619301058
1858.33618192211
1858.33617751506
1858.3361759248
1858.33617549236
1858.33617547571
1858.33617556022
1858.33617566597
1858.33617575822
1858.33617582888
1858.33617587951
1858.33617591712
1858.33617595132
1858.33617597814
1858.33617599402
1858.33617599414
1858.33617598174
1858.33617595598
1858.33617590886
1858.33617583705
1858.33617574645
1858.33617567823
1858.33617564294
1858.3361757228
1858.33617624266
1858.33617788535
1858.33618230148
1858.33619336864
1858.33621960963
1858.33627935184
1858.33641187164
1858.33670326701
1858.33735186257
1858.33884085861
1858.34238371942
1858.35098641884
1858.37172636031
1858.41939493164
1858.52729786576
1858.27105416832
1858.23537277537
1858.21916252212
1858.21185966558
1858.20874350541
1858.20744393224
1858.20690139709
1858.20666981117
1858.20656805414
1858.20652247677
1858.20650204364
1858.20649305682
1858.20648925455
1858.20648774021
1858.20648719556
1858.20648705033
1858.2064870481
1858.20648708099
1858.20648712124
1858.2064871565
1858.20648718385
1858.20648720372
1858.20648721865
1858.20648723185
1858.20648724172
1858.20648724738
1858.20648724737
1858.20648724262
1858.20648723275
1858.2064872151
1858.20648718862
1858.20648715542
1858.20648712915
1858.20648711512
1858.20648714152
1858.20648732103
1858.20648789513
1858.20648943791
1858.20649328434
1858.20650234691
1858.20652284354
1858.20656805997
1858.20666724749
1858.20688865392
1858.20740169402
1858.20864078004
1858.21170684011
1858.21926312343
1858.23705527486
1858.27837475437
1858.18506640806
1858.17205922103
1858.16624356435
1858.16366638826
1858.16258348081
1858.1621383671
1858.1619551241
1858.16187784539
1858.16184415818
1858.16182911202
1858.16182235749
1858.16181937552
1858.16181810803
1858.16181760124
1858.16181741834
1858.1618173691
1858.1618173681
1858.16181737924
1858.16181739296
1858.16181740506
1858.16181741448
1858.16181742135
1858.16181742653
1858.16181743103
1858.16181743426
1858.16181743604
1858.16181743599
1858.1618174343
1858.16181743084
1858.16181742477
1858.16181741578
1858.16181740458
1858.16181739557
1858.16181739091
1858.16181740073
1858.16181746276
1858.16181765931
1858.16181818505
1858.16181948698
1858.16182253272
1858.16182937205
1858.16184436729
1858.16187715286
1858.16195046643
1858.16212173765
1858.16254116004
1858.1635977829
1858.16625712059
1858.17266338916
1858.18788911775
1858.15504042728
1858.15046377252
1858.14844483797
1858.14756340333
1858.14719824652
1858.1470501577
1858.14698997856
1858.14696488547
1858.14695402848
1858.14694919118
1858.14694701549
1858.14694605023
1858.14694563695
1858.14694546999
1858.14694540863
1858.14694539048
1858.14694538836
1858.14694539101
1858.14694539452
1858.14694539767
1858.14694540006
1858.14694540174
1858.14694540298
1858.14694540408
1858.14694540484
1858.14694540524
1858.14694540515
1858.14694540464
1858.14694540365
1858.14694540196
1858.14694539944
1858.14694539636
1858.14694539407
1858.14694539351
1858.14694539831
1858.14694542052
1858.14694548748
1858.14694566365
1858.14694609484
1858.14694709427
1858.14694932006
1858.14695416608
1858.14696471663
1858.14698832466
1858.14704386187
1858.14718161275
1858.14753459003
1858.14844094072
1858.15067180913
1858.15608639355
1858.14488083569
1858.14332253359
1858.14264284053
1858.14235004921
1858.14223031706
1858.14218235655
1858.14216309712
1858.14215514933
1858.14215173328
1858.14215021336
1858.14214952708
1858.14214921986
1858.14214908619
1858.14214903052
1858.1421490086
1858.1421490006
1858.14214899794
1858.1421489971
1858.14214899682
1858.14214899663
1858.14214899639
1858.1421489961
1858.14214899583
1858.14214899566
1858.14214899555
1858.14214899545
1858.14214899534
1858.14214899527
1858.14214899521
1858.1421489951
1858.14214899491
1858.14214899472
1858.14214899499
1858.14214899611
1858.14214899927
1858.14214900827
1858.14214903203
1858.14214909132
1858.14214923259
1858.14214955479
1858.14215026412
1858.14215179489
1858.14215510888
1858.14216251917
1858.14218005068
1858.14222404354
1858.142338597
1858.14263838865
1858.14339140228
1858.14525447242
1858.14154290807
1858.14102829971
1858.14080598096
1858.14071135279
1858.14067310801
1858.14065795924
1858.14065194001
1858.14064947785
1858.14064842436
1858.14064795462
1858.14064774029
1858.14064764219
1858.14064759763
1858.14064757742
1858.14064756797
1858.14064756312
1858.14064756021
1858.14064755814
1858.14064755649
1858.14064755511
1858.14064755391
1858.1406475529
1858.14064755207
1858.14064755145
1858.14064755102
1858.14064755076
1858.14064755066
1858.14064755075
1858.14064755103
1858.14064755147
1858.14064755208
1858.14064755291
1858.14064755411
1858.14064755582
1858.14064755846
1858.14064756323
1858.14064757295
1858.14064759418
1858.14064764138
1858.14064774511
1858.14064796849
1858.14064844372
1858.14064946344
1858.14065173678
1858.14065713609
1858.14067082519
1858.14070700966
1858.14080342314
1858.14105026425
1858.14167192365
1858.14047602758
1858.14031087968
1858.14024013225
1858.14021033812
1858.14019842056
1858.14019374565
1858.14019190378
1858.14019115438
1858.1401908332
1858.14019068805
1858.1401906197
1858.14019058645
1858.14019056961
1858.14019056043
1858.14019055483
1858.14019055092
1858.14019054789
1858.14019054539
1858.14019054328
1858.14019054147
1858.14019053993
1858.14019053866
1858.14019053764
1858.14019053686
1858.14019053631
1858.14019053599
1858.14019053591
1858.14019053606
1858.14019053645
1858.14019053709
1858.14019053798
1858.14019053916
1858.14019054068
1858.14019054261
1858.1401905451
1858.14019054854
1858.14019055382
1858.14019056295
1858.14019058036
1858.14019061528
1858.14019068662
1858.14019083371
1858.14019114355
1858.14019182828
1858.14019345518
1858.14019761367
1858.14020875594
1858.14023894436
1858.14031763935
1858.14051919183
1858.14014372517
1858.14009214231
1858.14007023182
1858.14006109168
1858.14005746603
1858.14005605372
1858.14005549928
1858.14005527266
1858.1400551735
1858.14005512648
1858.14005510229
1858.14005508872
1858.14005508031
1858.14005507448
1858.14005507004
1858.14005506641
1858.14005506333
1858.14005506068
1858.14005505839
1858.14005505644
1858.14005505479
1858.14005505342
1858.14005505232
1858.14005505148
1858.1400550509
1858.14005505057
1858.14005505049
1858.14005505066
1858.1400550511
1858.1400550518
1858.14005505279
1858.14005505409
1858.14005505573
1858.14005505774
1858.1400550602
1858.14005506323
1858.14005506713
1858.14005507251
1858.14005508071
1858.14005509444
1858.14005511925
1858.14005516659
1858.14005526172
1858.1400554666
1858.14005594889
1858.14005718544
1858.14006053395
1858.14006973979
1858.14009415108
1858.1401577456
1858.14004270603
1858.14002701543
1858.14002043082
1858.14001770776
1858.14001663208
1858.14001621305
1858.14001604677
1858.14001597639
1858.14001594317
1858.14001592523
1858.14001591415
1858.14001590643
1858.14001590053
1858.14001589571
1858.14001589161
1858.14001588806
1858.14001588496
1858.14001588225
1858.14001587991
1858.1400158779
1858.14001587621
1858.1400158748
1858.14001587368
1858.14001587283
1858.14001587223
1858.1400158719
1858.14001587182
1858.140015872
1858.14001587245
1858.14001587318
1858.14001587421
1858.14001587555
1858.14001587723
1858.14001587928
1858.14001588173
1858.14001588465
1858.14001588813
1858.14001589237
1858.14001589776
1858.14001590511
1858.14001591598
1858.14001593362
1858.14001596517
1858.14001602826
1858.14001617116
1858.14001653305
1858.14001751519
1858.14002024143
1858.14002759093
1858.1400471336
1858.14001269097
1858.14000805287
1858.14000615992
1858.14000538416
1858.1400050752
1858.14000495212
1858.14000490048
1858.14000487589
1858.14000486189
1858.14000485241
1858.14000484515
1858.14000483915
1858.14000483399
1858.14000482947
1858.14000482547
1858.14000482194
1858.14000481883
1858.14000481611
1858.14000481375
1858.14000481173
1858.14000481002
1858.1400048086
1858.14000480747
1858.14000480661
1858.14000480602
1858.14000480568
1858.1400048056
1858.14000480579
1858.14000480625
1858.140004807
1858.14000480804
1858.1400048094
1858.14000481109
1858.14000481315
1858.1400048156
1858.14000481849
1858.14000482184
1858.14000482574
1858.1400048303
1858.14000483574
1858.14000484251
1858.14000485148
1858.14000486458
1858.14000488664
1858.14000493106
1858.14000503698
1858.14000531719
1858.14000609026
1858.14000821039
1858.14001405037
1858.14000396345
1858.14000264689
1858.14000215693
1858.14000195901
1858.1400018757
1858.14000183898
1858.14000182053
1858.14000180909
1858.14000180058
1858.14000179353
1858.14000178736
1858.14000178186
1858.14000177692
1858.14000177249
1858.14000176854
1858.14000176502
1858.14000176191
1858.14000175919
1858.14000175683
1858.1400017548
1858.14000175309
1858.14000175168
1858.14000175055
1858.14000174969
1858.14000174909
1858.14000174876
1858.14000174869
1858.14000174888
1858.14000174934
1858.14000175009
1858.14000175114
1858.1400017525
1858.1400017542
1858.14000175627
1858.14000175872
1858.14000176158
1858.1400017649
1858.14000176869
1858.140001773
1858.14000177789
1858.14000178347
1858.14000178996
1858.14000179781
1858.14000180824
1858.1400018247
1858.14000185731
1858.1400019339
1858.14000213157
1858.14000268653
1858.14000436754
1858.1400014774
1858.14000113646
1858.14000105679
1858.14000102664
1858.14000100832
1858.14000099625
1858.14000098717
1858.14000097942
1858.14000097244
1858.14000096605
1858.1400009602
1858.14000095484
1858.14000094998
1858.14000094558
1858.14000094165
1858.14000093814
1858.14000093505
1858.14000093234
1858.14000092998
1858.14000092796
1858.14000092626
1858.14000092485
1858.14000092373
1858.14000092287
1858.14000092228
1858.14000092195
1858.14000092188
1858.14000092208
1858.14000092255
1858.1400009233
1858.14000092434
1858.14000092571
1858.14000092741
1858.14000092946
1858.14000093191
1858.14000093477
1858.14000093806
1858.14000094182
1858.14000094605
1858.14000095078
1858.14000095603
1858.14000096183
1858.14000096824
1858.14000097547
1858.14000098419
1858.14000099631
1858.14000101514
1858.14000104704
1858.14000114402
1858.14000159147
1858.1400007834
1858.14000072294
1858.14000076062
1858.14000077804
1858.14000077793
1858.14000077266
1858.14000076611
1858.14000075931
1858.14000075271
1858.14000074649
1858.14000074071
1858.1400007354
1858.14000073056
1858.14000072619
1858.14000072227
1858.14000071879
1858.14000071572
1858.14000071302
1858.14000071068
1858.14000070868
1858.14000070699
1858.14000070559
1858.14000070448
1858.14000070363
1858.14000070305
1858.14000070272
1858.14000070266
1858.14000070285
1858.14000070332
1858.14000070407
1858.14000070511
1858.14000070647
1858.14000070816
1858.14000071021
1858.14000071265
1858.14000071549
1858.14000071877
1858.14000072251
1858.14000072672
1858.14000073141
1858.14000073657
1858.14000074221
1858.14000074827
1858.14000075469
1858.1400007614
1858.140000768
1858.14000077093
1858.14000075623
1858.14000072215
1858.14000081156
1858.14000059399
1858.14000061259
1858.14000068296
1858.14000071337
1858.14000071806
1858.14000071448
1858.14000070848
1858.14000070185
1858.14000069528
1858.14000068907
1858.14000068329
1858.14000067799
1858.14000067317
1858.14000066882
1858.14000066493
1858.14000066148
1858.14000065843
1858.14000065576
1858.14000065345
1858.14000065146
1858.14000064979
1858.14000064841
1858.14000064731
1858.14000064647
1858.1400006459
1858.14000064558
1858.14000064552
1858.14000064572
1858.14000064618
1858.14000064693
1858.14000064797
1858.14000064931
1858.140000651
1858.14000065303
1858.14000065545
1858.14000065828
1858.14000066154
1858.14000066526
1858.14000066946
1858.14000067414
1858.14000067931
1858.14000068494
1858.14000069097
1858.14000069728
1858.14000070359
1858.1400007089
1858.14000070774
1858.14000068044
1858.14000060981
1858.14000059737
1858.14000054423
1858.14000058472
1858.14000066376
1858.14000069732
1858.140000703
1858.14000069962
1858.14000069357
1858.14000068685
1858.14000068021
1858.14000067394
1858.14000066815
1858.14000066285
1858.14000065804
1858.14000065372
1858.14000064986
1858.14000064644
1858.14000064342
1858.14000064079
1858.1400006385
1858.14000063655
1858.1400006349
1858.14000063354
1858.14000063246
1858.14000063164
1858.14000063108
1858.14000063077
1858.14000063071
1858.14000063091
1858.14000063137
1858.14000063211
1858.14000063314
1858.14000063447
1858.14000063614
1858.14000063815
1858.14000064055
1858.14000064336
1858.1400006466
1858.14000065031
1858.1400006545
1858.14000065919
1858.14000066438
1858.14000067006
1858.14000067618
1858.14000068259
1858.14000068899
1858.14000069422
1858.1400006923
1858.14000066198
1858.14000058162
1858.14000054071
1858.14000053269
1858.14000057916
1858.1400006601
1858.140000694
1858.1400006995
1858.14000069585
1858.14000068956
1858.14000068264
1858.14000067587
1858.14000066953
1858.1400006637
1858.1400006584
1858.14000065361
1858.14000064932
1858.1400006455
1858.14000064212
1858.14000063915
1858.14000063655
1858.1400006343
1858.14000063238
1858.14000063077
1858.14000062944
1858.14000062838
1858.14000062757
1858.14000062702
1858.14000062672
1858.14000062667
1858.14000062687
1858.14000062733
1858.14000062805
1858.14000062907
1858.14000063038
1858.14000063203
1858.14000063402
1858.14000063639
1858.14000063917
1858.14000064239
1858.14000064608
1858.14000065026
1858.14000065496
1858.1400006602
1858.14000066596
1858.14000067221
1858.14000067883
1858.14000068549
1858.14000069103
1858.14000068934
1858.14000065873
1858.14000057617
1858.14000052741
1858.14000053171
1858.14000057983
1858.14000066071
1858.14000069404
1858.14000069896
1858.14000069484
1858.14000068819
1858.14000068102
1858.14000067409
1858.14000066766
1858.14000066179
1858.14000065648
1858.14000065171
1858.14000064746
1858.14000064369
1858.14000064036
1858.14000063743
1858.14000063489
1858.14000063269
1858.14000063081
1858.14000062923
1858.14000062793
1858.14000062689
1858.14000062611
1858.14000062558
1858.14000062529
1858.14000062524
1858.14000062543
1858.14000062589
1858.1400006266
1858.1400006276
1858.1400006289
1858.14000063051
1858.14000063247
1858.14000063481
1858.14000063756
1858.14000064074
1858.14000064441
1858.14000064858
1858.1400006533
1858.14000065858
1858.14000066444
1858.14000067086
1858.14000067773
1858.14000068476
1858.14000069078
1858.14000068969
1858.14000065966
1858.14000057706
1858.14000052613
1858.14000053395
1858.14000058253
1858.14000066269
1858.14000069506
1858.14000069917
1858.14000069444
1858.14000068736
1858.14000067989
1858.14000067278
1858.14000066624
1858.14000066032
1858.14000065502
1858.14000065028
1858.14000064608
1858.14000064236
1858.14000063909
1858.14000063622
1858.14000063373
1858.14000063159
1858.14000062975
1858.14000062822
1858.14000062695
1858.14000062595
1858.14000062519
1858.14000062467
1858.14000062439
1858.14000062435
1858.14000062454
1858.14000062499
1858.14000062569
1858.14000062667
1858.14000062794
1858.14000062952
1858.14000063145
1858.14000063374
1858.14000063645
1858.14000063959
1858.14000064323
1858.14000064739
1858.14000065212
1858.14000065745
1858.14000066343
1858.14000067004
1858.14000067721
1858.14000068467
1858.1400006913
1858.14000069103
1858.14000066195
1858.14000058002
1858.14000052847
1858.14000053754
1858.14000058625
1858.14000066532
1858.14000069645
1858.14000069956
1858.14000069411
1858.14000068652
1858.14000067872
1858.14000067139
1858.14000066474
1858.14000065879
1858.14000065349
1858.14000064879
1858.14000064464
1858.14000064099
1858.14000063779
1858.140000635
1858.14000063257
1858.14000063049
1858.14000062871
1858.14000062722
1858.14000062599
1858.14000062502
1858.14000062429
1858.14000062379
1858.14000062353
1858.14000062349
1858.14000062368
1858.14000062412
1858.1400006248
1858.14000062575
1858.14000062699
1858.14000062854
1858.14000063042
1858.14000063267
1858.14000063533
1858.14000063843
1858.14000064202
1858.14000064616
1858.14000065089
1858.14000065628
1858.14000066237
1858.1400006692
1858.14000067671
1858.14000068468
1858.14000069204
1858.14000069276
1858.14000066491
1858.14000058402
1858.14000053228
1858.1400005421
1858.1400005908
1858.14000066848
1858.14000069807
1858.14000069998
1858.14000069368
1858.14000068551
1858.14000067734
1858.14000066979
1858.14000066304
1858.14000065705
1858.14000065177
1858.14000064712
1858.14000064305
1858.14000063947
1858.14000063635
1858.14000063364
1858.14000063129
1858.14000062927
1858.14000062755
1858.14000062611
1858.14000062494
1858.140000624
1858.1400006233
1858.14000062282
1858.14000062257
1858.14000062254
1858.14000062273
1858.14000062315
1858.14000062382
1858.14000062474
1858.14000062595
1858.14000062745
1858.14000062928
1858.14000063148
1858.14000063407
1858.14000063712
1858.14000064066
1858.14000064476
1858.14000064949
1858.14000065493
1858.14000066114
1858.14000066819
1858.14000067607
1858.14000068462
1858.14000069283
1858.14000069475
1858.14000066841
1858.14000058887
1858.14000053711
1858.14000054768
1858.14000059626
1858.14000067217
1858.14000069989
1858.14000070037
1858.14000069308
1858.14000068428
1858.14000067571
1858.14000066794
1858.14000066108
1858.14000065508
1858.14000064983
1858.14000064525
1858.14000064126
1858.14000063778
1858.14000063475
1858.14000063212
1858.14000062986
1858.14000062791
1858.14000062627
1858.14000062489
1858.14000062376
1858.14000062287
1858.1400006222
1858.14000062174
1858.1400006215
1858.14000062147
1858.14000062166
1858.14000062207
1858.14000062272
1858.14000062361
1858.14000062477
1858.14000062623
1858.140000628
1858.14000063014
1858.14000063266