/*--------------------------------*- C++ -*----------------------------------*\
  =========                 |
  \\      /  F ield         | OpenFOAM: The Open Source CFD Toolbox
   \\    /   O peration     | Website:  https://openfoam.org
    \\  /    A nd           | Version:  10
     \\/     M anipulation  |
\*---------------------------------------------------------------------------*/
FoamFile
{
    format      ascii;
    class       volScalarField;
    location    "6";
    object      k;
}
// * * * * * * * * * * * * * * * * * * * * * * * * * * * * * * * * * * * * * //

dimensions      [0 2 -2 0 0 0 0];

internalField   nonuniform List<scalar> 
2500
(
1.07224274082223e-09
2.09983219651141e-08
8.93145652881791e-08
1.53526173187578e-07
2.06951260024657e-07
2.47787289781279e-07
2.76586681449736e-07
2.95381924614646e-07
3.06769194852978e-07
3.13195635945811e-07
3.16585752237826e-07
3.18263259685879e-07
3.19044496567398e-07
3.19388019008431e-07
3.19531047166305e-07
3.19587561867607e-07
3.19608774024101e-07
3.1961631993444e-07
3.19618835942413e-07
3.19619591958783e-07
3.19619766565129e-07
3.19619764786095e-07
3.19619719279764e-07
3.19619672750525e-07
3.19619636349014e-07
3.19619613460364e-07
3.19619604591833e-07
3.19619601807091e-07
3.19619580587122e-07
3.19619482005969e-07
3.19619124480817e-07
3.19617975984261e-07
3.19614561966208e-07
3.19604964770405e-07
3.1957924692463e-07
3.1951340955111e-07
3.19352481840325e-07
3.18977574193228e-07
3.1814720259156e-07
3.1640372000556e-07
3.12944523003365e-07
3.06480890420386e-07
2.95146921073608e-07
2.76563481775808e-07
2.48173569856107e-07
2.07898408417521e-07
1.55000692624605e-07
9.09218514389932e-08
2.16958679052775e-08
1.13084516983832e-09
2.637128335641e-08
6.02046286404133e-07
2.61424337088817e-06
4.49778395503414e-06
6.06877748318307e-06
7.27426283368561e-06
8.12858358848213e-06
8.68932078808146e-06
9.03121438296498e-06
9.2254924319008e-06
9.32872426577082e-06
9.38019022695805e-06
9.40434312006814e-06
9.41504626875283e-06
9.41953753519109e-06
9.4213261641813e-06
9.42200291198321e-06
9.42224573225089e-06
9.42232755060281e-06
9.42235256534315e-06
9.42235863425674e-06
9.42235887028478e-06
9.42235760842395e-06
9.42235625660739e-06
9.42235518695027e-06
9.42235450969578e-06
9.42235423208791e-06
9.42235411121106e-06
9.42235336533528e-06
9.42235004167441e-06
9.42233829157795e-06
9.42230102949739e-06
9.42219123276971e-06
9.4218848812313e-06
9.42106968625431e-06
9.4189971473153e-06
9.41396605949019e-06
9.40232638569285e-06
9.37672482265986e-06
9.32334227484355e-06
9.21814954246904e-06
9.02290112428032e-06
8.68271776543975e-06
8.12828306977753e-06
7.28588794415619e-06
6.0965150809607e-06
4.54046693018791e-06
2.66043224515454e-06
6.21576360766986e-07
2.77517586647246e-08
9.2961360273783e-08
2.68721800280217e-06
1.31882169366265e-05
2.26275384068437e-05
3.0444181905997e-05
3.64228273054102e-05
4.06564505149828e-05
4.34386485557911e-05
4.51398828803177e-05
4.61105461282018e-05
4.66288717255961e-05
4.68887125118891e-05
4.7011378407055e-05
4.70660735095535e-05
4.70891714002158e-05
4.70984305711928e-05
4.71019579726967e-05
4.71032331921398e-05
4.71036669547786e-05
4.71038016606257e-05
4.71038357369285e-05
4.71038383984595e-05
4.71038327883947e-05
4.71038263892334e-05
4.71038212415027e-05
4.71038179348393e-05
4.7103816443221e-05
4.71038155519447e-05
4.71038113846825e-05
4.71037935176406e-05
4.71037313855826e-05
4.71035363184614e-05
4.71029652321002e-05
4.71013799929949e-05
4.7097181419869e-05
4.7086555474896e-05
4.70608777636232e-05
4.70017412338471e-05
4.68722613373491e-05
4.66034889936207e-05
4.60761394805647e-05
4.51011833004294e-05
4.34081512447557e-05
4.06553384582977e-05
3.6476905326368e-05
3.05726399432666e-05
2.28249577505483e-05
1.34016165561275e-05
2.76594854521655e-06
9.70448155620054e-08
1.6357113672982e-07
4.76130986147392e-06
2.34118105384657e-05
3.99792020521717e-05
5.3594096712307e-05
6.39513585833095e-05
7.12598734344476e-05
7.60536240669626e-05
7.89829812908815e-05
8.06548792753e-05
8.1548544839267e-05
8.19972128657825e-05
8.22094126724951e-05
8.23042319252567e-05
8.23443697178045e-05
8.23605018362572e-05
8.23666655488377e-05
8.23689014778721e-05
8.23696654917338e-05
8.23699046294707e-05
8.23699663113867e-05
8.23699721531918e-05
8.23699632772817e-05
8.23699526674137e-05
8.23699440235807e-05
8.23699383916957e-05
8.23699356945388e-05
8.23699338978705e-05
8.23699266274018e-05
8.23698962431662e-05
8.23697901570446e-05
8.23694570819749e-05
8.23684811303464e-05
8.23657689942115e-05
8.23585774001569e-05
8.23403566210218e-05
8.22962830121632e-05
8.21946958210883e-05
8.19721162414151e-05
8.15098211916191e-05
8.06022815167172e-05
7.89234116758362e-05
7.60054774463206e-05
7.12543954674218e-05
6.40266517684957e-05
5.37784778550384e-05
4.02642804751173e-05
2.37184355918807e-05
4.87260290943803e-06
1.69253443832639e-07
2.32011246152503e-07
6.75748747782953e-06
3.31123157081795e-05
5.63043107196087e-05
7.52430705556674e-05
8.95860180229576e-05
9.96779867943688e-05
0.000106287212333721
0.000110323910222941
0.000112628435454293
0.000113861297858646
0.000114481050626481
0.000114774636744093
0.000114906069141347
0.000114961823865782
0.000114984286087163
0.000114992891634641
0.000114996023540818
0.000114997098530273
0.000114997437768698
0.000114997527046601
0.000114997537007921
0.000114997525955501
0.000114997512032417
0.000114997500509699
0.000114997492852287
0.000114997488903551
0.000114997486023821
0.000114997475922554
0.000114997434347771
0.000114997289436548
0.000114996834726033
0.000114995501487664
0.000114991792319289
0.000114981944713038
0.000114956964153952
0.000114896471620091
0.000114756900893781
0.000114450835477649
0.000113814669240679
0.000112564959412109
0.000110251500481898
0.000106227171650026
9.96665407597624e-05
8.96672984538323e-05
7.54497495423092e-05
5.66263724191907e-05
3.34586453424002e-05
6.88410733676125e-06
2.38568181667742e-07
2.96281137209621e-07
8.63164512895766e-06
4.21346127618941e-05
7.13755077610005e-05
9.51256964830311e-05
0.000113045412632934
0.000125624590389358
0.000133852721248576
0.000138876516780557
0.000141745510139817
0.000143281610866194
0.000144054724903775
0.000144421508530999
0.000144585997296273
0.000144655913514405
0.00014468414426317
0.000144694987757758
0.000144698946683685
0.000144700311674177
0.000144700746065022
0.000144700862853571
0.000144700878071643
0.000144700865839345
0.000144700849553377
0.000144700835811234
0.000144700826459019
0.000144700821273513
0.000144700817203858
0.000144700804267248
0.000144700752479237
0.000144700573205115
0.00014470001162513
0.000144698364850296
0.000144693779693476
0.000144681593649368
0.000144650647801948
0.000144575633768767
0.000144402401371403
0.000144022220220744
0.000143231468349107
0.000141677150677295
0.000138798078876539
0.000133786267694704
0.000125607608529242
0.000113123434547263
9.53322499690691e-05
7.17002077480472e-05
4.24852936017113e-05
8.76256117837329e-06
3.03240114745906e-07
3.55247552372511e-07
1.03530548136227e-05
5.03638501852448e-05
8.50339481505095e-05
0.00011306554395105
0.000134150140103902
0.000148923044878092
0.000158577168715277
0.000164470549191628
0.000167837425896041
0.000169641553201046
0.000170550594722233
0.000170982470483219
0.000171176467569618
0.000171259079861767
0.000171292507498765
0.000171305378689488
0.000171310092360196
0.000171311724825744
0.000171312248646219
0.000171312392568187
0.000171312414104111
0.000171312401844433
0.000171312384128127
0.000171312368821924
0.000171312358124438
0.000171312351776235
0.000171312346376624
0.000171312330484642
0.000171312269284443
0.000171312059637845
0.000171311404737993
0.000171309485113224
0.000171304137558799
0.000171289913291617
0.000171253758059497
0.000171166038249213
0.000170963301506991
0.000170518060231641
0.000169591440422798
0.000167769119542262
0.000164391942475443
0.0001585096448851
0.000148902778164157
0.000134220800499753
0.000113258997830335
8.53402073573022e-05
5.06968661865769e-05
1.04812550909023e-05
3.62291460357381e-07
4.08200070496072e-07
1.19014554838613e-05
5.77263991986069e-05
9.71875969841749e-05
0.000128970707153305
0.000152816311120127
0.000169498593823175
0.000180393008946063
0.000187043133481228
0.000190843926015034
0.000192882162041915
0.00019391026431283
0.000194399344911739
0.000194619373201694
0.000194713233375436
0.000194751287406237
0.000194765973976316
0.000194771368285042
0.000194773244568778
0.000194773851437649
0.000194774021783344
0.000194774050566711
0.000194774039337491
0.0001947740210468
0.000194774004784609
0.000194773993080063
0.000194773985654355
0.000194773978793057
0.000194773959840081
0.000194773889933583
0.000194773653513332
0.000194772917741996
0.000194770762969041
0.000194764758929935
0.000194748777888645
0.000194708125453149
0.000194609418314817
0.000194381127813257
0.000193879462575773
0.00019283488218944
0.000190779680263009
0.000186969364756267
0.000180329576462168
0.000169478744953869
0.000152879734268322
0.000129145869367397
9.74650924418003e-05
5.80301116893823e-05
1.2022892434965e-05
4.15126048301917e-07
4.5477307106351e-07
1.32660868111605e-05
6.41890018277164e-05
0.000107807589684937
0.000142827545148068
0.000169047477310474
0.000187369222674217
0.000199328421486415
0.000206628777470597
0.000210803042254513
0.000213043247743022
0.000214174361351699
0.00021471310126418
0.000214955812744383
0.000215059515771918
0.000215101637766516
0.000215117929641876
0.000215123930213889
0.000215126026027014
0.000215126709093979
0.000215126904821377
0.000215126941477866
0.000215126932154572
0.000215126914021388
0.000215126897334082
0.000215126884928479
0.000215126876517106
0.000215126868113503
0.000215126846056281
0.000215126768103596
0.000215126508188219
0.000215125702949478
0.000215123347690607
0.000215116784912011
0.000215099307889219
0.00021505482079146
0.000214946730956399
0.000214696587988736
0.000214146613645598
0.000213000941387691
0.000210746016535766
0.000206564027325624
0.00019927391471819
0.000187354442534759
0.000169106934565993
0.000142985187934071
0.000108054281283802
6.44597223321958e-05
1.33789809607116e-05
4.61468409267424e-07
4.94906564406591e-07
1.44448283397134e-05
6.97554144711837e-05
0.000116921440544681
0.000154691142293684
0.00018292329615963
0.000202633276186175
0.000215494357028913
0.000223346116781835
0.000227837688116046
0.00023024991178146
0.000231469019282064
0.000232050322470852
0.000232312549688797
0.000232424757033705
0.000232470410636841
0.00023248810403687
0.000232494637761134
0.000232496928709727
0.000232497680807882
0.00023249790052097
0.00023249794534964
0.000232497938591922
0.000232497921210799
0.000232497904537711
0.000232497891696606
0.000232497882401192
0.000232497872436279
0.000232497847308601
0.000232497761965521
0.000232497481575422
0.00023249661726401
0.000232494093066692
0.00023248706065619
0.000232468326074709
0.000232420611954743
0.000232304615652891
0.000232036034907261
0.000231445256105231
0.000230214123825752
0.000227790254992578
0.000223293733626786
0.000215453089449962
0.00020262859827483
0.000182984056673028
0.000154836137105695
0.000117141146473983
6.99951832948542e-05
1.45490878634207e-05
5.01328676953679e-07
5.28801503047503e-07
1.54430147454527e-05
7.44609497608185e-05
0.000124603623575541
0.000164673009774767
0.0001945853976006
0.000215454244731858
0.000229068717553911
0.000237381765778137
0.000242139336343574
0.000244696136120774
0.000245989423845678
0.000246606731722299
0.000246885530655498
0.000247004990108719
0.000247053669744392
0.000247072570801076
0.000247079567253056
0.000247082029361541
0.000247082843129005
0.000247083085057854
0.000247083138074704
0.000247083134392164
0.000247083118215081
0.00024708310190033
0.000247083088846548
0.000247083078778254
0.000247083067291377
0.000247083039205141
0.000247082947149744
0.000247082649086012
0.000247081735106375
0.000247079070340906
0.000247071648411405
0.000247051871021106
0.000247001478568223
0.000246878912269354
0.000246594992501211
0.000245970233389399
0.000244667878981833
0.000242103137136457
0.000237344254250769
0.000229044287876221
0.000215464535900602
0.000194653629558654
0.000164812569629995
0.000124803774554931
7.46755089493396e-05
1.55397059212053e-05
5.34958947900069e-07
5.56865160335609e-07
1.62719330562803e-05
7.83656474791815e-05
0.00013096452572428
0.000172927119850629
0.000204221567777841
0.000226043839272871
0.000240278791888011
0.000248972396037771
0.000253949904719463
0.000256626569185942
0.00025798154973062
0.000258628905987047
0.000258921588661011
0.000259047149901145
0.000259098387811575
0.000259118315595274
0.000259125708277468
0.000259128318481254
0.000259129186554563
0.000259129448692412
0.000259129509668385
0.000259129509348104
0.000259129494679135
0.000259129478974013
0.000259129465888043
0.000259129455164154
0.000259129442244677
0.000259129411383531
0.0002591293133239
0.000259129000183401
0.000259128044960681
0.000259125264794948
0.000259117524283461
0.000259096894426034
0.000259044310929669
0.000258916364136516
0.000258619868938645
0.000257967226054776
0.000256606386689978
0.000253925909718953
0.000248951420510848
0.00024027392853203
0.000226073332092363
0.000204303389305181
0.00017306927721203
0.000131154221849171
7.85626732036806e-05
1.63628027529339e-05
5.62799773804055e-07
5.79651058990345e-07
1.69471464149347e-05
8.15468680622122e-05
0.000136138865795226
0.000179635507137028
0.000212049560017017
0.000234644711625503
0.000249383333346302
0.000258386447699912
0.000263543266332496
0.000266317930465406
0.000267723512291603
0.000268395602616755
0.000268699758430263
0.000268830383787998
0.000268883755158721
0.000268904543994438
0.000268912271340875
0.000268915007914458
0.000268915923125508
0.000268916203328717
0.000268916271814043
0.000268916274939032
0.000268916261949926
0.000268916247022705
0.000268916234046261
0.000268916222787495
0.000268916208565117
0.000268916175173568
0.000268916071840849
0.000268915746015195
0.000268914757006623
0.000268911883436064
0.000268903886138545
0.000268882569675696
0.000268828220405767
0.000268695933141514
0.000268389283046756
0.000267714104035883
0.000266305965056259
0.000263531846110719
0.000258382864941326
0.000249399803990264
0.000234696663668592
0.000212150307447265
0.000179787913935133
0.000136327325186621
8.17345322546311e-05
1.70342171476136e-05
5.85422172583521e-07
5.97799436064645e-07
1.74868159436384e-05
8.40920349610893e-05
0.000140274577788961
0.000184994582685288
0.000218301769856154
0.000241514117755606
0.000256655617376276
0.000265906836608381
0.000271207761733058
0.000274061418977343
0.000275507923533023
0.000276200090108336
0.000276513595666507
0.000276648365928599
0.000276703491988467
0.000276724992994273
0.000276732999097924
0.000276735841989881
0.000276736797512097
0.00027673709357448
0.000276737168964754
0.00027673717547325
0.000276737164221506
0.000276737150169672
0.000276737137410299
0.000276737125737364
0.000276737110371585
0.000276737074739403
0.000276736966870801
0.000276736630537198
0.000276735614252558
0.000276732666194847
0.000276724465030878
0.000276702603957594
0.000276646853412299
0.000276511118475098
0.000276196394530699
0.000275503282933193
0.000274057482682902
0.000271208771834228
0.000265920763684025
0.000256694216221056
0.000241590619759958
0.000218425515906255
0.000185163673408187
0.000140470021025561
8.42779397637218e-05
1.75720720471262e-05
6.03471110101299e-07
6.11983503950092e-07
1.7910170969438e-05
8.60921113441068e-05
0.000143522958120547
0.000189203084086971
0.000223211778803874
0.000246909584855644
0.000262368577382085
0.000271815778854579
0.000277230848231205
0.000280147268295771
0.000281626398860737
0.000282334631371419
0.000282655649474154
0.000282793764934109
0.000282850314078318
0.000282872395925218
0.000282880630977203
0.000282883562048627
0.00028288455152532
0.00028288486125815
0.000282884942865968
0.000282884952599721
0.00028288494303637
0.000282884929899366
0.000282884917435347
0.000282884905465605
0.000282884889134647
0.000282884851579211
0.000282884739896896
0.000282884395007848
0.00028288335704364
0.000282880350499074
0.000282871989994133
0.000282849703687122
0.000282792858562094
0.000282654428168765
0.000282333386073478
0.000281626230102806
0.000280150916136354
0.00027724372571898
0.000271846694871687
0.000262429189196963
0.000247011517249987
0.00022336109964569
0.000189393599088983
0.000143731925152401
8.6282602035269e-05
1.79953440668268e-05
6.17615302669432e-07
6.22865150311461e-07
1.82362336137684e-05
8.76362072724861e-05
0.000146030609137608
0.000192452275844663
0.00022700343750785
0.000251077293127352
0.000266782757135198
0.000276382488641377
0.000281886652653087
0.000284852220217145
0.000286356989688502
0.000287077896070258
0.000287404865197829
0.000287545642470495
0.00028760332958777
0.000287625878534889
0.000287634298985573
0.000287637302149511
0.000287638319796522
0.000287638641078667
0.000287638728207208
0.000287638740992374
0.000287638732941747
0.000287638720713031
0.000287638708598757
0.000287638696443622
0.000287638679333953
0.00028763864018256
0.000287638525373293
0.000287638173650118
0.000287637118740682
0.000287634067011645
0.000287625583963505
0.000287602970959167
0.000287545284549688
0.000287404780639541
0.000287078873710665
0.00028636089511631
0.000284862823420977
0.000281910520011375
0.000276429362842076
0.000266864485892642
0.000251204411611337
0.000227179399633422
0.000192667105078116
0.000146257663847621
8.78360315050715e-05
1.8322683371144e-05
6.28506476647719e-07
6.31061893567718e-07
1.84828534954849e-05
8.88075178054787e-05
0.000147933436515593
0.000194918692384881
0.000229882807240825
0.0002542435119279
0.000270137434569986
0.000279854114401041
0.000285426798744066
0.000288430291853946
0.000289954918630794
0.000290685679763634
0.000291017295881204
0.000291160161220767
0.000291218745502695
0.000291241664802305
0.000291250233270663
0.000291253294534075
0.00029125433520677
0.000291254666103102
0.000291254757995909
0.000291254773425964
0.000291254766876776
0.000291254755525019
0.000291254743796496
0.000291254731559068
0.000291254713855714
0.000291254673429551
0.000291254556127588
0.000291254199060553
0.000291253131144871
0.000291250045101754
0.000291241469383822
0.000291218609545318
0.000291160287202655
0.000291018214451734
0.000290688623169214
0.000289962441124394
0.000288447107585791
0.00028546056889789
0.000279915549270027
0.000270238777020976
0.000254394630022465
0.000230085125664686
0.000195158973934043
0.000148181184058032
8.90197702751071e-05
1.85715296966666e-05
6.36749473527261e-07
6.37125226745201e-07
1.86660611062734e-05
8.96806115227773e-05
0.000149352703426915
0.000196759415234761
0.000232032947343453
0.000256609078609653
0.000272644907698396
0.000282449906393035
0.000288074504400985
0.000291106832665434
0.000292646614609479
0.000293384927637327
0.000293720120391784
0.000293864600380048
0.000293923881954476
0.00029394709075275
0.000293955775726363
0.000293958883145788
0.000293959942365196
0.000293960281177035
0.000293960377063912
0.000293960394811879
0.000293960389638218
0.000293960379112675
0.0002939603677921
0.000293960355565372
0.000293960337444389
0.000293960296046207
0.00029396017682144
0.000293959815677159
0.000293958737979348
0.000293955626357873
0.000293946981806063
0.000293923938724704
0.000293865143955311
0.000293721904468328
0.00029338957014595
0.000292657274659871
0.000291129067090654
0.000288116980356196
0.000282524283241264
0.000272763949275219
0.000256782309423262
0.000232260257611535
0.000197024810543108
0.000149622030405879
8.99068872484164e-05
1.87575271139884e-05
6.42883058708704e-07
6.41529203811632e-07
1.87997118419463e-05
9.03199482434147e-05
0.000150392945068931
0.000198109638147302
0.000233611272464632
0.00025834662712231
0.000274487640907125
0.000284358309740939
0.000290021640769982
0.000293075562706246
0.000294626738915631
0.000295370753829658
0.000295708659230485
0.000295854369728016
0.000295914185476486
0.000295937617346703
0.000295946392720876
0.000295949536287133
0.000295950610230496
0.000295950955472918
0.000295951054678818
0.000295951074409706
0.000295951070456302
0.000295951060698322
0.000295951049797922
0.000295951037663814
0.000295951019286117
0.000295950977190859
0.000295950856542122
0.000295950492378109
0.000295949407496863
0.000295946277209555
0.000295937582541036
0.000295914406024616
0.000295855266838261
0.000295711175529836
0.00029537683576528
0.000294640065339369
0.000293102424862147
0.000290071604261028
0.00028444392528597
0.000274622252409048
0.000258539647468137
0.000233861459516408
0.000198398705984919
0.000150683391916315
9.05606252950839e-05
1.88942078207411e-05
6.47370186886244e-07
6.44667309701367e-07
1.88953685643522e-05
9.07794092049455e-05
0.000151141410485363
0.000199082109243492
0.000234749019057232
0.000259600075605996
0.000275817763289664
0.000285736464865091
0.000291428230125004
0.000294498066553774
0.000296057675577848
0.00029680592924053
0.000297145860742005
0.000297292494939414
0.000297352713845988
0.000297376315091537
0.000297385159598369
0.000297388331069775
0.000297389416537049
0.000297389766922728
0.000297389868842622
0.00029738989025089
0.000297389887385772
0.000297389878336864
0.000297389867862482
0.000297389855891111
0.000297389837399096
0.000297389794848365
0.000297389673202025
0.000297389306887096
0.000297388216889982
0.000297385073337541
0.00029737634305627
0.000297353071577615
0.000297293686750198
0.000297148986571461
0.000296813210461771
0.000296073229454297
0.00029452881159961
0.000291484515467288
0.000285831650165799
0.000275965781064275
0.000259810381709842
0.000235019554287848
0.000199392710854246
0.000151451596591718
9.10339901368686e-05
1.89928946618098e-05
6.50595807641407e-07
6.46855313627599e-07
1.89623595140119e-05
9.11025769016956e-05
0.000151668631750896
0.000199767957113293
0.000235552267093846
0.000260485780555078
0.000276758303495988
0.000286711486587655
0.000292423746665758
0.000295505103419114
0.00029707084480212
0.000297822195806697
0.000298163615381205
0.000298310931656961
0.000298371449988085
0.000298395177836148
0.000298404074411204
0.000298407267111616
0.000298408361474694
0.000298408715917851
0.000298408820033071
0.00029840884285623
0.000298408840955637
0.000298408832558831
0.000298408822511281
0.00029840881076095
0.000298408792276088
0.000298408749475856
0.000298408627187953
0.000298408259426212
0.000298407165943711
0.000298404013313557
0.000298395258568816
0.000298371921581304
0.000298312366581394
0.000298167242958726
0.000297830464561123
0.000297088236815032
0.000295539064994079
0.000292485298116337
0.000286814703313916
0.000276917681717972
0.000260710913599039
0.000235840517750203
0.000200097641448516
0.000151996672192614
9.13700336160278e-05
1.9062763256474e-05
6.52870048705295e-07
6.48337823625383e-07
1.90079475421609e-05
9.13234951994856e-05
0.000152029710626211
0.000200238394272984
0.000236103945886246
0.000261094745020016
0.00027740552315702
0.000287382869151549
0.000293109559305619
0.000296199068260837
0.000297769172217173
0.000298522739015171
0.000298865229389212
0.000299013039512163
0.000299073776063727
0.000299097596849953
0.000299106531977314
0.000299109740576358
0.000299110841715001
0.000299111199328305
0.000299111305211697
0.000299111329223757
0.000299111328171411
0.000299111320373484
0.000299111310750318
0.000299111299267439
0.000299111280889685
0.000299111238010079
0.000299111115372118
0.000299110746729186
0.000299109651045762
0.000299106492590528
0.000299097721967243
0.000299074342029357
0.000299014674455332
0.000298869268545423
0.000298531817621228
0.000297788074156829
0.000296235680791322
0.000293175472316587
0.000287492781879003
0.000277574453044427
0.000261332474567629
0.000236407435124249
0.000200584730754694
0.000152373584233487
9.16025798337766e-05
1.91110046194022e-05
6.54434672387992e-07
6.49296532038398e-07
1.9037553239423e-05
9.14676645057423e-05
0.000152265948031817
0.000200546833006052
0.000236466297855291
0.000261495314818764
0.000277831758025487
0.000287825411601391
0.000293561902660558
0.000296656985764192
0.000298230093611068
0.000298985197313169
0.000299328436077947
0.000299476594097554
0.000299537485665924
0.000299561373078683
0.000299570336144491
0.000299573556432573
0.000299574662661101
0.000299575022734851
0.000299575130042962
0.000299575155054176
0.000299575154747509
0.000299575147500639
0.000299575138296353
0.000299575127115696
0.000299575108923565
0.000299575066100177
0.000299574943345843
0.000299574574275269
0.000299573477414788
0.000299570315706163
0.000299561535939179
0.00029953813062693
0.00029947839509442
0.000299332815694326
0.000298994945327184
0.000298250245131307
0.000296695798318594
0.000293631450974367
0.000287940937793454
0.000278008754084377
0.000261743776715257
0.000236782906459182
0.000200907676062347
0.000152623795677051
9.1757165714382e-05
1.91430355087039e-05
6.5547096839823e-07
6.4985853458114e-07
1.90549849402692e-05
9.15530675420253e-05
0.000152406502177023
0.000200731021892169
0.000236683355299098
0.000261735882633449
0.000278088264529834
0.00028809214792513
0.000293834853067789
0.00029693350999348
0.00029850856592315
0.000299264678196643
0.000299608414061276
0.000299756806036777
0.000299817803194651
0.000299841736619836
0.00029985071929328
0.000299853947961314
0.000299855057953613
0.000299855419929033
0.00029985552839083
0.000299855554249856
0.000299855554604774
0.000299855547868397
0.000299855539075275
0.000299855528220233
0.000299855510271263
0.000299855467607374
0.000299855344920817
0.000299854975789816
0.000299853878594607
0.000299850715753831
0.000299841932369135
0.000299818515986265
0.000299758748488282
0.000299613082644375
0.000299274993808737
0.000298529777840172
0.00029697419372813
0.000293907504597097
0.000288212489226813
0.000278272221570616
0.000261993674171727
0.000237011465531529
0.000201104704325842
0.000152776848999066
9.1852004543702e-05
1.91627131069126e-05
6.56107602484126e-07
6.50103531376187e-07
1.90626403907851e-05
9.15910694967449e-05
0.000152469833505838
0.000200814894940205
0.000236783076923163
0.00026184721830226
0.000278207672832591
0.000288216873086075
0.000293962895219671
0.000297063512787352
0.000298639666421493
0.000299396362495424
0.000299740393894528
0.00029988892871811
0.000299949992132524
0.000299973955305099
0.00029998295112306
0.000299986185693397
0.00029998729852761
0.00029998766206739
0.00029998777155058
0.000299987798198229
0.000299987799189114
0.000299987792949774
0.000299987784559766
0.000299987774026874
0.000299987756325111
0.000299987713842731
0.000299987591295863
0.000299987222319712
0.000299986125412554
0.000299982963186636
0.000299974180924805
0.000299950765861607
0.000299890997477757
0.000299745319756935
0.000299407183019668
0.000298661822096696
0.000297105864610631
0.000294038320965388
0.000288341533738297
0.000278397901397791
0.000262113459878271
0.000237121668240992
0.000201200357806836
0.000152851737658948
9.18988244375404e-05
1.91725210576815e-05
6.56427318581525e-07
6.50068925063322e-07
1.90616502405795e-05
9.15870719710702e-05
0.000152464764304941
0.000200809937708877
0.000236778927821722
0.000261844187858884
0.000278205791173555
0.000288215996689811
0.000293962802256914
0.000297063974785765
0.000298640489809046
0.000299397404303471
0.000299741559066587
0.000299890159551363
0.000299951256245364
0.000299975235734909
0.000299984239499315
0.000299987478081811
0.000299988593134274
0.000299988958070519
0.000299989068550559
0.00029998909599959
0.00029998909764381
0.000299989091906468
0.000299989083907963
0.000299989073669231
0.000299989056172918
0.000299989013827379
0.000299988891405015
0.000299988522693399
0.000299987426574403
0.000299984266566573
0.00029997548996197
0.000299952088166049
0.000299892348721797
0.000299746729994172
0.000299408705672968
0.000298663544490623
0.000297107916422837
0.000294040873834823
0.00028834478315859
0.000278402023306146
0.000262118540237301
0.000237127612159504
0.000201206789659732
0.00015285790035694
9.19034756190023e-05
1.91737036202024e-05
6.564717455695e-07
6.49752876336128e-07
1.90519661495841e-05
9.15408927012783e-05
0.000152391057058565
0.000200715912692982
0.00023667070739645
0.000261726649624289
0.000278082545169168
0.000288089508403108
0.000293834617229171
0.000296934978646446
0.000298511145880011
0.000299267930031917
0.00029961204547544
0.000299760639462493
0.000299821738936977
0.000299845722446704
0.000299854729434792
0.000299857970314694
0.000299859087010142
0.000299859453174988
0.000299859564612505
0.000299859592857435
0.000299859595154639
0.00029985958991143
0.000299859582286253
0.000299859572312977
0.000299859554986834
0.000299859512748542
0.000299859390464637
0.000299859022183296
0.00029985792746827
0.00029985477153299
0.000299846005675568
0.000299822630304287
0.000299762952158319
0.000299617468324006
0.000299279726109738
0.000298535125609258
0.000296980555706122
0.000293915407550114
0.000288222531291474
0.000278284937831864
0.000262009320043598
0.000237029739180719
0.00020112444428255
0.000152795731492564
9.18662291110134e-05
1.91663268697331e-05
6.56243349910784e-07
6.49114897737612e-07
1.90323745844962e-05
9.1446798698554e-05
0.000152239443568404
0.00020052087714917
0.000236444558195205
0.000261479457626444
0.000277821978175823
0.00028782097691692
0.000293561651624327
0.00029665970824594
0.000298234758160259
0.000298991037513265
0.000299334940995948
0.000299483452861042
0.000299544523558207
0.000299568498514147
0.00029957750393595
0.000299580745369776
0.000299581863104739
0.000299582230300707
0.000299582342629161
0.000299582371640646
0.000299582374570833
0.00029958236980074
0.000299582362525659
0.000299582352792394
0.000299582335613824
0.000299582293478598
0.00029958217139359
0.000299581803798911
0.000299580711300027
0.000299577561748887
0.000299568812823178
0.000299545479635091
0.000299485901161029
0.00029934064150892
0.000299003379612784
0.000298259758671828
0.000296707087651567
0.000293645432850891
0.000287958646888326
0.000278031105050091
0.000261771185603074
0.000236814812328393
0.000200942028798596
0.000152656552043445
9.1781766144617e-05
1.91492819398661e-05
6.55706035092008e-07
6.48072845502942e-07
1.90004143769154e-05
9.12931784782765e-05