/*--------------------------------*- C++ -*----------------------------------*\
  =========                 |
  \\      /  F ield         | OpenFOAM: The Open Source CFD Toolbox
   \\    /   O peration     | Website:  https://openfoam.org
    \\  /    A nd           | Version:  10
     \\/     M anipulation  |
\*---------------------------------------------------------------------------*/
FoamFile
{
    format      ascii;
    class       volScalarField;
    location    "6";
    object      nut;
}
// * * * * * * * * * * * * * * * * * * * * * * * * * * * * * * * * * * * * * //

dimensions      [0 2 -1 0 0 0 0];

internalField   nonuniform List<scalar> 
2500
(
8.37511512546358e-15
1.63999992588819e-13
6.97580929449435e-13
1.1991228535742e-12
1.61642107080066e-12
1.93538901683844e-12
2.16033943152398e-12
2.30714770447e-12
2.39609260164422e-12
2.44628878470442e-12
2.47276853337088e-12
2.48587129636421e-12
2.49197341329422e-12
2.49465661518046e-12
2.49577379036376e-12
2.49621522604656e-12
2.49638091518069e-12
2.49643986132171e-12
2.49645952075926e-12
2.49646543089888e-12
2.49646679904436e-12
2.49646678886909e-12
2.49646643648914e-12
2.4964660748784e-12
2.49646579250766e-12
2.49646561538137e-12
2.49646554665348e-12
2.49646552509662e-12
2.4964653590129e-12
2.4964645880547e-12
2.49646179388679e-12
2.49645282019756e-12
2.49642615069332e-12
2.49635118491237e-12
2.49615030335394e-12
2.49563605512081e-12
2.49437907274241e-12
2.49145073059247e-12
2.48496482500722e-12
2.4713467367686e-12
2.44432740274393e-12
2.39384069648434e-12
2.30531209937581e-12
2.1601581685932e-12
1.93840609848901e-12
1.62381895605686e-12
1.21063974203127e-12
7.10134435995746e-13
1.69447880669807e-13
8.83285195398374e-15
8.26928543960391e-13
4.24815757140036e-11
1.84490140736543e-10
3.17441612330763e-10
4.28340547353138e-10
5.13440127344353e-10
5.73750036555391e-10
6.13334500266764e-10
6.37469769818483e-10
6.51184275784793e-10
6.58471557768881e-10
6.62104579355393e-10
6.6380953695965e-10
6.64565070007593e-10
6.64882106542009e-10
6.65008365357124e-10
6.650561369665e-10
6.65073278272939e-10
6.65079054802501e-10
6.65080821428421e-10
6.65081250611361e-10
6.65081268004789e-10
6.65081179557043e-10
6.65081084553915e-10
6.65081009421175e-10
6.65080961936535e-10
6.65080942499739e-10
6.65080934065499e-10
6.6508088146473e-10
6.650806467837e-10
6.65079817194685e-10
6.65077186590197e-10
6.65069435632896e-10
6.65047810006157e-10
6.64990265781544e-10
6.64843966652277e-10
6.64488824634383e-10
6.63667181899236e-10
6.61859959258002e-10
6.58091638308012e-10
6.50665921802807e-10
6.36882892771015e-10
6.12868319179762e-10
5.73728722045771e-10
5.1426061518055e-10
4.30298336405895e-10
3.20454127888965e-10
1.8774968082358e-10
4.38595784560081e-11
8.70217321389047e-13
2.92468009422062e-12
7.610374346897e-10
2.59420831333337e-07
4.45150958851272e-07
5.98969314859404e-07
7.16623389473368e-07
7.99937601487909e-07
8.54688552122816e-07
8.88166748824875e-07
9.07267926133345e-07
9.17467642909603e-07
9.22580778477569e-07
9.24994566238747e-07
9.26070832785681e-07
9.26525340035093e-07
9.2670753611451e-07
9.26776945939529e-07
9.26802039192439e-07
9.26810575121835e-07
9.26813226403192e-07
9.26813897584354e-07
9.26813950634159e-07
9.26813840858171e-07
9.26813715364729e-07
9.26813614410754e-07
9.26813549642132e-07
9.26813520461055e-07
9.26813503057096e-07
9.26813421190029e-07
9.26813069671833e-07
9.26811847111543e-07
9.26808008667544e-07
9.26796770846238e-07
9.2676557725535e-07
9.26682960785369e-07
9.2647387071723e-07
9.25968599221092e-07
9.24804935039347e-07
9.22257059098226e-07
9.16968160118816e-07
9.06590851018058e-07
8.87405161137977e-07
8.54088319021915e-07
7.99915556170464e-07
7.17687302621015e-07
6.01496690401981e-07
4.49034814818624e-07
2.63618285791919e-07
7.83331552595298e-10
3.05314433208333e-12
5.16090480645336e-12
1.35233584020427e-09
4.61857988151891e-07
7.88781394337063e-07
1.05746885040392e-06
1.26187340037071e-06
1.40610987035977e-06
1.50071549878112e-06
1.55852614844653e-06
1.59152046191344e-06
1.60915640362904e-06
1.61801049051242e-06
1.62219803462823e-06
1.62406917959667e-06
1.62486124596777e-06
1.62517959046855e-06
1.62530122207287e-06
1.62534534486449e-06
1.62536042190734e-06
1.62536514139151e-06
1.62536635915872e-06
1.62536647512951e-06
1.62536630066257e-06
1.62536609177191e-06
1.62536592154082e-06
1.6253658107068e-06
1.62536575767251e-06
1.62536572239958e-06
1.62536557915931e-06
1.62536497973099e-06
1.62536288648576e-06
1.62535631409818e-06
1.62533705483447e-06
1.62528353436659e-06
1.62514161915273e-06
1.62478205841865e-06
1.62391232416712e-06
1.62190762132828e-06
1.61751523986321e-06
1.60839222688506e-06
1.59048246844533e-06
1.55735052630422e-06
1.49976523426541e-06
1.40600155872212e-06
1.26335893406408e-06
1.06110685740512e-06
7.94405736592863e-07
4.67906174681552e-07
1.38393870452629e-09
5.34015374882839e-12
7.33634295524742e-12
1.92347416624477e-09
6.54624788329799e-07
1.11322643223399e-06
1.48775000143223e-06
1.77139392724265e-06
1.97097053430702e-06
2.10167186112111e-06
2.18149901630197e-06
2.22707132706762e-06
2.25145111503868e-06
2.26370659003319e-06
2.26951215006223e-06
2.27211116329366e-06
2.27321368110944e-06
2.27365785679133e-06
2.27382802505605e-06
2.27388995597612e-06
2.27391121310788e-06
2.2739179214308e-06
2.27391968711551e-06
2.27391988456533e-06
2.27391966655878e-06
2.27391939162546e-06
2.27391916400582e-06
2.2739190127929e-06
2.27391893485362e-06
2.27391887807617e-06
2.2739186785791e-06
2.27391785668758e-06
2.27391499150729e-06
2.27390600058393e-06
2.27387963662539e-06
2.27380629006805e-06
2.27361156098016e-06
2.27311758730456e-06
2.27192138273201e-06
2.26916143862597e-06
2.26310910483538e-06
2.2505290545303e-06
2.22581609919057e-06
2.18006709485539e-06
2.1004844834482e-06
1.97074403774689e-06
1.77300097163266e-06
1.49183647209159e-06
1.11959366499091e-06
6.61470416462908e-07
1.95950444457126e-09
7.54360312083237e-12
9.38274703267051e-12
2.46054070910801e-09
8.34179686334794e-07
1.41317762690364e-06
1.88347493172655e-06
2.23832113266084e-06
2.48741292012685e-06
2.65034437975922e-06
2.74982355612286e-06
2.80663378799295e-06
2.837050619313e-06
2.85235922161664e-06
2.85962195349589e-06
2.86287900572743e-06
2.86426341674548e-06
2.86482241209057e-06
2.86503712266353e-06
2.86511551252497e-06
2.86514254034673e-06
2.86515114154145e-06
2.86515345405171e-06
2.86515375559667e-06
2.86515351373597e-06
2.8651531915072e-06
2.86515291951076e-06
2.86515273442799e-06
2.86515263183424e-06
2.86515255137246e-06
2.86515229541949e-06
2.86515127019058e-06
2.8651477207653e-06
2.86513660168417e-06
2.86510399410727e-06
2.86501320368351e-06
2.86477190938689e-06
2.86415915291155e-06
2.86267380096689e-06
2.85924361717516e-06
2.85171560140622e-06
2.83605775087675e-06
2.80528019919408e-06
2.74827038862107e-06
2.64902849051264e-06
2.48707659137833e-06
2.23986592092751e-06
1.88756455402655e-06
1.41960590963193e-06
8.41121063610187e-07
2.4978468962573e-09
9.60302723206542e-12
1.12607843740073e-11
2.9538981143586e-09
9.97959612962418e-07
1.68501219585665e-06
2.240524273061e-06
2.65836652178561e-06
2.95112623225685e-06
3.14244430057369e-06
3.25923423590896e-06
3.32595580686402e-06
3.3617081626461e-06
3.37972256754155e-06
3.38828099487604e-06
3.39212540276438e-06
3.39376251381565e-06
3.3944249412835e-06
3.3946800059327e-06
3.39477341500093e-06
3.39480576479908e-06
3.39481614507173e-06
3.39481899705632e-06
3.39481942384506e-06
3.39481918108315e-06
3.39481883013232e-06
3.39481852682984e-06
3.39481831486941e-06
3.39481818910746e-06
3.39481808217569e-06
3.39481776738825e-06
3.39481655477961e-06
3.39481240057795e-06
3.39479942318298e-06
3.39476138262869e-06
3.39465541155027e-06
3.39437353331156e-06
3.39365705398006e-06
3.3919187290501e-06
3.38790113057128e-06
3.3790778434105e-06
3.36071509523934e-06
3.32460220197532e-06
3.25767650854449e-06
3.14110619509813e-06
2.95072460457341e-06
2.65976675478526e-06
2.24435773324823e-06
1.69108053581794e-06
1.00455711974769e-06
2.99046407476613e-09
1.14839634491738e-11
1.29463866259744e-11
3.39740302473806e-09
1.14439556521444e-06
1.92673475945817e-06
2.55685982934986e-06
3.02961800387788e-06
3.3603567198673e-06
3.57634595797068e-06
3.70818886026961e-06
3.78354178861983e-06
3.82395093088858e-06
3.84433358912602e-06
3.85402985247491e-06
3.85839201698149e-06
3.86025283737736e-06
3.86100727496426e-06
3.86129844205937e-06
3.86140538606792e-06
3.86144258391568e-06
3.86145461520308e-06
3.86145799230947e-06
3.86145856293007e-06
3.86145834036493e-06
3.86145797778731e-06
3.86145765535493e-06
3.86145742330628e-06
3.86145727610359e-06
3.86145714011213e-06
3.8614567644467e-06
3.86145537864702e-06
3.86145069173647e-06
3.86143610513034e-06
3.86139338605115e-06
3.86127435358693e-06
3.86095752295039e-06
3.86015157097701e-06
3.85819465782243e-06
3.85366869235602e-06
3.84372293467601e-06
3.82301359306351e-06
3.78226809741184e-06
3.70672637489861e-06
3.57508839677205e-06
3.35996322939202e-06
3.03087541878912e-06
2.56033244623906e-06
1.93223582168111e-06
1.1504156429737e-06
3.43205954377224e-09
1.31659638628497e-11
1.44277300735105e-11
3.78795649536196e-09
1.27282736553022e-06
2.137780470266e-06
2.83222758444028e-06
3.35216987513694e-06
3.71549022113489e-06
3.95264081793311e-06
4.09740647733778e-06
4.18018182530672e-06
4.22460488730175e-06
4.24703474681188e-06
4.25771789434724e-06
4.26253083139103e-06
4.26458724796877e-06
4.26542252079137e-06
4.26574558591486e-06
4.26586457604523e-06
4.26590613551288e-06
4.26591968051485e-06
4.26592356170986e-06
4.26592428858136e-06
4.26592410370138e-06
4.26592374411555e-06
4.26592341318229e-06
4.26592316716964e-06
4.26592300037781e-06
4.26592283375631e-06
4.26592239641297e-06
4.26592085070202e-06
4.26591569675757e-06
4.26589972921206e-06
4.26585302494891e-06
4.26572288620162e-06
4.26537631970417e-06
4.26449414726262e-06
4.26235074117534e-06
4.25739043946818e-06
4.24648451597098e-06
4.22376596249168e-06
4.17905102041183e-06
4.09612250180677e-06
3.95155997263356e-06
3.71519715911291e-06
3.35334894173589e-06
2.83535362919551e-06
2.14267214101834e-06
1.2781950522553e-06
3.82018589839877e-09
1.4640078469964e-11
1.57032904967945e-11
4.12506597582235e-09
1.38337064015396e-06
2.31876726782435e-06
3.06781799429923e-06
3.6277194541132e-06
4.01860840096341e-06
4.27366954592331e-06
4.42938565546926e-06
4.51846245765821e-06
4.56630163660902e-06
4.59047894844172e-06
4.60200733696065e-06
4.60720781865834e-06
4.60943311061838e-06
4.61033851095824e-06
4.61068940554787e-06
4.61081898192213e-06
4.61086441580511e-06
4.61087933131153e-06
4.6108836886126e-06
4.61088457763091e-06
4.61088444360349e-06
4.61088409889028e-06
4.61088376821153e-06
4.6108835135366e-06
4.61088332919156e-06
4.61088313157932e-06
4.61088263327358e-06
4.61088094079807e-06
4.61087538019079e-06
4.6108582393184e-06
4.61080817963737e-06
4.61066871327515e-06
4.61029716997424e-06
4.60935090553607e-06
4.60705047124311e-06
4.60172398697446e-06
4.59000767910571e-06
4.56559189343979e-06
4.51752176968497e-06
4.4283468012001e-06
4.27285113974831e-06
4.01851564836643e-06
3.62892448727545e-06
3.07069355621298e-06
2.32312439961127e-06
1.38812538555196e-06
4.15483617688087e-09
1.59070231632945e-11
1.67799429283451e-11
4.4103856614524e-09
1.47676952818428e-06
2.47124558885393e-06
3.26593973913877e-06
3.85919054489516e-06
4.27308110567437e-06
4.54309600047869e-06
4.70796805927489e-06
4.80232457658631e-06
4.85303337405022e-06
4.87868303871323e-06
4.89092605167695e-06
4.89645544596111e-06
4.89882467438568e-06
4.89979013302837e-06
4.90016499582149e-06
4.90030375571252e-06
4.9003525864184e-06
4.90036872575095e-06
4.9003735238779e-06
4.90037457534094e-06
4.90037450229729e-06
4.9003741814495e-06
4.90037385786951e-06
4.90037359896835e-06
4.90037339928531e-06
4.90037317147323e-06
4.90037261445426e-06
4.90037078875176e-06
4.9003648773215e-06
4.90034675050594e-06
4.90029390050894e-06
4.90014670213611e-06
4.89975445907853e-06
4.89875503027378e-06
4.89632418410974e-06
4.89069322892945e-06
4.87830243659933e-06
4.85247295377852e-06
4.80160664285333e-06
4.70722409979676e-06
4.5426114948412e-06
4.27328522132444e-06
3.86054380548313e-06
3.26870764502938e-06
2.47521515021182e-06
1.48102470181986e-06
4.43799784723482e-09
1.69753081534835e-11
1.76710121289666e-11
4.64723839039728e-09
1.55424684679932e-06
2.59745727175831e-06
3.42971522432682e-06
4.05038825610019e-06
4.48319642423254e-06
4.7655227943252e-06
4.93794580525825e-06
5.03666630608875e-06
5.08975343382269e-06
5.11662718753467e-06
5.12946640648895e-06
5.13527127322601e-06
5.1377615683604e-06
5.13877778571837e-06
5.13917301958699e-06
5.13931964090504e-06
5.13937140985598e-06
5.13938862660183e-06
5.13939382564922e-06
5.13939503499585e-06
5.13939502863819e-06
5.13939473769833e-06
5.13939442620812e-06
5.1393941666666e-06
5.13939395397671e-06
5.13939369774384e-06
5.13939308567139e-06
5.13939114083595e-06
5.13938493024244e-06
5.1393659850406e-06
5.13931084517411e-06
5.13915732523839e-06
5.1387481669124e-06
5.13770526211918e-06
5.13516765358398e-06
5.12928717193164e-06
5.11634310176532e-06
5.0893531484582e-06
5.03619040648263e-06
4.9375297924396e-06
4.76542634062842e-06
4.48378137071016e-06
4.05201106096779e-06
3.43253469486685e-06
2.60121957709038e-06
1.55815445164162e-06
4.67318967123991e-09
1.78593231607511e-11
1.83943220368729e-11
4.84013054114671e-09
1.61735625083571e-06
2.70010545759302e-06
3.56279529341603e-06
4.20567878124096e-06
4.65381924239301e-06
4.94613736332489e-06
5.12470041935895e-06
5.22697805637414e-06
5.28200928863531e-06
5.30988686040059e-06
5.32321674674293e-06
5.32924921323922e-06
5.33183996787042e-06
5.33289850753658e-06
5.3333108223403e-06
5.33346408244375e-06
5.33351835818977e-06
5.3335365099939e-06
5.33354206739005e-06
5.33354342568753e-06
5.33354348766397e-06
5.33354323004202e-06
5.33354293398085e-06
5.33354267661147e-06
5.33354245331134e-06
5.33354217123379e-06
5.33354150896642e-06
5.33353945952516e-06
5.33353299727937e-06
5.33351338181582e-06
5.33345638894058e-06
5.33329777476458e-06
5.3328749952766e-06
5.33179706046598e-06
5.32917334445804e-06
5.32309140771684e-06
5.30970026204253e-06
5.28177197310706e-06
5.22675155392191e-06
5.12462936127473e-06
4.94646403454277e-06
4.65484963482159e-06
4.20767695958955e-06
3.56581806101665e-06
2.70384326810389e-06
1.621078257509e-06
4.8649976325692e-09
1.85774533567134e-11
1.89703347442379e-11
4.99428228285669e-09
1.66784189754903e-06
2.78214053355995e-06
3.66909653154316e-06
4.32969593863651e-06
4.79007893740047e-06
5.09038844651707e-06
5.27387285173395e-06
5.37900894854206e-06
5.43560706575683e-06
5.46429636753211e-06
5.47802447891081e-06
5.48424240296608e-06
5.48691537391684e-06
5.48800871864257e-06
5.4884351596207e-06
5.48859394896356e-06
5.48865033355948e-06
5.48866928493999e-06
5.48867515690112e-06
5.48867665215491e-06
5.4886767812401e-06
5.488676558077e-06
5.48867627937852e-06
5.48867602631459e-06
5.48867579479933e-06
5.48867549004247e-06
5.48867478333181e-06
5.48867264391852e-06
5.48866597323756e-06
5.48864581672402e-06
5.48858734631815e-06
5.48842468823771e-06
5.48799110584585e-06
5.48688537536244e-06
5.48419327149225e-06
5.47795118253269e-06
5.46420432802977e-06
5.43552899513638e-06
5.37902898247061e-06
5.27414907503374e-06
5.09115399854097e-06
4.79159624399544e-06
4.33215026373298e-06
3.67245020453337e-06
2.78601686880893e-06
1.67152903809563e-06
5.01863146916493e-09
1.91503147052236e-11
1.94204869558922e-11
5.11520185374615e-09
1.70751282434197e-06
2.84657100427581e-06
3.75257056883047e-06
4.42708408278586e-06
4.89709595304777e-06
5.20370281343097e-06
5.39107445210967e-06
5.49847455581372e-06
5.55631754813604e-06
5.58565397286934e-06
5.59970074480177e-06
5.60606767656408e-06
5.60880699780344e-06
5.60992856863477e-06
5.61036653026221e-06
5.61052986065528e-06
5.6105879942333e-06
5.61060761907676e-06
5.6106137621802e-06
5.61061538075303e-06
5.61061557380755e-06
5.61061538413189e-06
5.61061512357815e-06
5.6106148763723e-06
5.61061463897003e-06
5.6106143150696e-06
5.61061357021245e-06
5.61061135515584e-06
5.61060451478007e-06
5.61058392825714e-06
5.61052429777791e-06
5.6103584792058e-06
5.6099164624059e-06
5.6087890212202e-06
5.60604345373048e-06
5.59967604611073e-06
5.58565062579958e-06
5.55638989780212e-06
5.49872996224314e-06
5.39168762681337e-06
5.20490496162882e-06
4.89911763581324e-06
4.43004564809214e-06
3.75634916235199e-06
2.85071556711786e-06
1.71129092999186e-06
5.13952748515589e-09
1.95992034559079e-11
1.97658167748096e-11
5.20832936789448e-09
1.73813857745718e-06
2.89630792206664e-06
3.81701521485525e-06
4.50228803336106e-06
4.97975848622018e-06
5.29125387363479e-06
5.4816508001711e-06
5.59081801058599e-06
5.64963579603443e-06
5.67948074339619e-06
5.69377888900076e-06
5.7002638533591e-06
5.70305596893839e-06
5.70420011028745e-06
5.70464733635695e-06
5.70481434393521e-06
5.70487390738989e-06
5.70489409096031e-06
5.70490046313116e-06
5.70490219120085e-06
5.70490244477629e-06
5.70490228510366e-06
5.70490204256473e-06
5.70490180229567e-06
5.70490156121631e-06
5.70490122187096e-06
5.70490044535972e-06
5.70489816828306e-06
5.70489119235856e-06
5.70487026974187e-06
5.70480974306831e-06
5.70464149395939e-06
5.70419299740676e-06
5.70304887009567e-06
5.70026217627032e-06
5.69379827910162e-06
5.67955820196629e-06
5.64984609539772e-06
5.59129138545387e-06
5.48258048281235e-06
5.29287484653155e-06
4.98227969949445e-06
4.50577799072056e-06
3.82127604627981e-06
2.90081122842695e-06
1.74210180415846e-06
5.23301967879025e-09
1.9944836456485e-11
2.00259350374664e-11
5.27876582063102e-09
1.76137011245849e-06
2.934048179469e-06
3.86593355810498e-06
4.55939678941253e-06
5.04255653839821e-06
5.35778977003843e-06
5.55050622212038e-06
5.66103244848978e-06
5.72060244004298e-06
5.75084123230017e-06
5.76533483454866e-06
5.77191196610408e-06
5.77474549584827e-06
5.77590743131719e-06
5.7763620028549e-06
5.77653194617345e-06
5.77659266195611e-06
5.776613302211e-06
5.77661986506667e-06
5.77662168762921e-06
5.77662199366246e-06
5.77662186376888e-06
5.77662163862326e-06
5.77662140600507e-06
5.77662116329354e-06
5.77662081217321e-06
5.7766200103785e-06
5.77661768386228e-06
5.77661060194876e-06
5.77658942136875e-06
5.77652821411657e-06
5.77635812701353e-06
5.77590473480221e-06
5.77474799452436e-06
5.77193018464285e-06
5.76539321279561e-06
5.75099043021056e-06
5.72093595604559e-06
5.66170223120956e-06
5.55172469491137e-06
5.35979975267434e-06
5.04555374981947e-06
4.56340948632929e-06
3.87069919961519e-06
2.93896189838692e-06
1.76557983657594e-06
5.30409203466059e-09
2.02064228604835e-11
2.02183486474978e-11
5.33109079802068e-09
1.77868674228241e-06
2.96219740003685e-06
3.90244177422932e-06
4.60204186963525e-06
5.08947430804997e-06
5.40752205878743e-06
5.6019901940258e-06
5.7135460564932e-06
5.77368795362208e-06
5.80422732772539e-06
5.81887071138661e-06
5.82551878059099e-06
5.82838433465738e-06
5.82956009995671e-06
5.83002041329874e-06
5.83019266733719e-06
5.83025429856018e-06
5.83027530666335e-06
5.8302820265121e-06
5.83028392829148e-06
5.83028428029729e-06
5.83028417768539e-06
5.83028396892657e-06
5.83028374439948e-06
5.83028350190015e-06
5.83028314249672e-06
5.83028232142336e-06
5.83027995677094e-06
5.83027279399074e-06
5.83025141939547e-06
5.83018970483137e-06
5.83001825250216e-06
5.82956122591877e-06
5.82839511570197e-06
5.82555416520586e-06
5.81896278891652e-06
5.80443875459563e-06
5.77412894167375e-06
5.71438850636084e-06
5.60346535251127e-06
5.40988307833178e-06
5.09291009367884e-06
4.60655024401573e-06
3.90770551106495e-06
2.9675391159997e-06
1.78317459789363e-06
5.35721379849823e-09
2.04010659597422e-11
2.03581034113896e-11
5.36926190949952e-09
1.7913670659713e-06
2.9828290898324e-06
3.92922149111259e-06
4.63334566184757e-06
5.12393606471833e-06
5.44407000109337e-06
5.63984060820902e-06
5.75216468395845e-06
5.81273486026099e-06
5.84350022310817e-06
5.85825669542557e-06
5.86495856604547e-06
5.86784852548385e-06
5.86903488535348e-06
5.86949962300551e-06
5.86967367000872e-06
5.86973601815213e-06
5.86975731828381e-06
5.86976416567398e-06
5.86976613328147e-06
5.86976652461571e-06
5.86976644620589e-06
5.86976625267062e-06
5.86976603647711e-06
5.86976579581478e-06
5.86976543131979e-06
5.86976459642089e-06
5.86976220352605e-06
5.8697549808538e-06
5.86973346378546e-06
5.86967137901164e-06
5.86949893269029e-06
5.86903925961634e-06
5.8678663183897e-06
5.8650084732532e-06
5.85837732193236e-06
5.84376453368164e-06
5.81326763273382e-06
5.75315563839241e-06
5.64153867017224e-06
5.4467398278279e-06
5.12776434739006e-06
4.63830776444164e-06
3.93495473856152e-06
2.98858968799668e-06
1.79614055128612e-06
5.39625028255542e-09
2.05434594644448e-11
2.0457686922577e-11
5.39658171427815e-09
1.80047978733116e-06
2.99767377950927e-06
3.94850899569972e-06
4.65591115669677e-06
5.14879633223279e-06
5.47045097998023e-06
5.66717424432498e-06
5.78006227037124e-06
5.84094808679184e-06
5.87188070190994e-06
5.88672124348218e-06
5.89346329879166e-06
5.89637157844476e-06
5.89756593435781e-06
5.89803403131912e-06
5.89820944946669e-06
5.89827235106775e-06
5.8982938797594e-06
5.89830082915861e-06
5.89830285059426e-06
5.89830327519696e-06
5.89830321837176e-06
5.89830303889993e-06
5.89830283115588e-06
5.89830259372121e-06
5.89830222695889e-06
5.89830138302636e-06
5.89829897034552e-06
5.89829170501305e-06
5.89827008647914e-06
5.89820773861145e-06
5.89803458596514e-06
5.89757302945923e-06
5.89639521631427e-06
5.89352529515682e-06
5.8868656561026e-06
5.87218919081883e-06
5.84155787082595e-06
5.78117860966887e-06
5.66906210868017e-06
5.47338670091784e-06
5.15296745312594e-06
4.66127683621437e-06
3.95466933459764e-06
3.00382587748251e-06
1.80552903614055e-06
5.42443549998852e-09
2.06458201616566e-11
2.05271200147272e-11
5.41571444753619e-09
1.80688931877228e-06
3.00813039598487e-06
3.96211172358239e-06
4.67184233382286e-06
5.16636291374956e-06
5.48910513353285e-06
5.68651228524158e-06
5.79980679428902e-06
5.86092109857425e-06
5.89197533960243e-06
5.90687731220533e-06
5.91364888117165e-06
5.91657068881138e-06
5.91777098335671e-06
5.91824159128789e-06
5.91841804213051e-06
5.91848136477723e-06
5.91850306990397e-06
5.91851009977732e-06
5.9185121647541e-06
5.91851261741911e-06
5.91851257972389e-06
5.91851241318559e-06
5.91851221390715e-06
5.91851198085649e-06
5.91851161423607e-06
5.91851076535506e-06
5.91850833994977e-06
5.918501045922e-06
5.9184793582609e-06
5.91841683035105e-06
5.91824319251049e-06
5.91778033673991e-06
5.91659914849198e-06
5.91372082899087e-06
5.90704131113118e-06
5.8923202853128e-06
5.86159467785068e-06
5.80102757928978e-06
5.68855944139647e-06
5.49226617263411e-06
5.1708281057038e-06
4.6775593733515e-06
3.96865054087835e-06
3.01463660900761e-06
1.81219394019722e-06
5.44439009816398e-09
2.0717989880522e-11
2.05741651135693e-11
5.42873442388945e-09
1.81127087701552e-06
3.01529181187328e-06
3.97144208322287e-06
4.68278398913592e-06
5.17844073736211e-06
5.50194168701583e-06
5.69982807092282e-06
5.81340877735143e-06
5.87468476753238e-06
5.90582553326757e-06
5.92077145263012e-06
5.92756425922197e-06
5.93049586154907e-06
5.93170048415785e-06
5.93217293537402e-06
5.93235015084255e-06
5.93241378881446e-06
5.93243562832436e-06
5.9324427210729e-06
5.9324448211188e-06
5.93244529736397e-06
5.93244527649251e-06
5.93244512183213e-06
5.93244493097075e-06
5.93244470322462e-06
5.93244433872854e-06
5.93244348827327e-06
5.93244105592516e-06
5.93243374442038e-06
5.93241201310758e-06
5.93234936966702e-06
5.9321754169021e-06
5.93171170928263e-06
5.93052828831457e-06
5.92764437011417e-06
5.92095151380088e-06
5.90620042620714e-06
5.8754109247041e-06
5.81471606763565e-06
5.70200803263636e-06
5.50529216966532e-06
5.18315576284499e-06
4.68880326400028e-06
3.97831117186856e-06
3.02211205292826e-06
1.81680612147557e-06
5.45816787540193e-09
2.07676407491717e-11
2.06045880268138e-11
5.43718978897384e-09
1.81413022792728e-06
3.01997717448705e-06
3.97755943416484e-06
4.68997061583672e-06
5.18638534879067e-06
5.51039532104407e-06
5.70860513800719e-06
5.82238022878956e-06
5.88376677283924e-06
5.91496711573911e-06
5.92994351705658e-06
5.93675116675388e-06
5.93968966904687e-06
5.9408973661649e-06
5.94137113881232e-06
5.94154890839595e-06
5.94161277820178e-06
5.94163471866179e-06
5.9416418602096e-06
5.94164398851272e-06
5.94164448457466e-06
5.94164447849269e-06
5.94164433476173e-06
5.94164415220826e-06
5.94164393045628e-06
5.94164356964177e-06
5.94164272030152e-06
5.94164028564535e-06
5.94163296565909e-06
5.94161121100154e-06
5.94154850303602e-06
5.94137436892286e-06
5.9409101580497e-06
5.93972538924914e-06
5.9368380301845e-06
5.93013685497219e-06
5.91536679231286e-06
5.88453656432057e-06
5.82375962007367e-06
5.71089643470864e-06
5.51390578458575e-06
5.19131323494773e-06
4.69625009441135e-06
3.98471623979946e-06
3.02707457042895e-06
1.81987207010561e-06
5.4673158829221e-09
2.08005258010663e-11
2.06224219849661e-11
5.4421682182454e-09
1.81582403365625e-06
3.0227647960804e-06
3.98121246659588e-06
4.69427553285187e-06
5.19115654906516e-06
5.51548263504191e-06
5.71389534132035e-06
5.82779367696554e-06
5.88925110126363e-06
5.92049008088743e-06
5.93548648543407e-06
5.94230399424058e-06
5.94524713664702e-06
5.94645692795424e-06
5.94693161318152e-06
5.94710977165051e-06
5.94717380765924e-06
5.94719582276777e-06
5.94720300203233e-06
5.94720515321711e-06
5.94720566609418e-06
5.94720567313382e-06
5.94720553952777e-06
5.94720536512914e-06
5.94720514983528e-06
5.94720479384351e-06
5.94720394766674e-06
5.94720151435487e-06
5.94719419317028e-06
5.94717243187438e-06
5.9471097014557e-06
5.94693549559435e-06
5.94647106516182e-06
5.94528566239878e-06
5.94239658891051e-06
5.93569108084069e-06
5.92091078890434e-06
5.89005800490907e-06
5.82923461605544e-06
5.71628213877611e-06
5.51913115961478e-06
5.19626947519927e-06
4.70078312962056e-06
3.98862392273729e-06
3.03011009513873e-06
1.82175302115061e-06
5.47293574740817e-09
2.08207280907005e-11
2.06301961727572e-11
5.44435451691297e-09
1.81657770667099e-06
3.0240208134762e-06
3.98287587775235e-06
4.69625326158235e-06
5.19336461442823e-06
5.51785080215474e-06
5.71636895618405e-06
5.83033307700129e-06
5.89182938642636e-06
5.92309013673523e-06
5.93809811978616e-06
5.9449214899405e-06
5.94786746546708e-06
5.94907857085038e-06
5.94955384606373e-06
5.94973226523135e-06
5.94979641830238e-06
5.94981848977571e-06
5.94982570006695e-06
5.94982787150957e-06
5.94982840002784e-06
5.94982841968095e-06
5.94982829593292e-06
5.9498281295295e-06
5.94982792062503e-06
5.94982756953627e-06
5.94982672695948e-06
5.9498242964182e-06
5.94981697830501e-06
5.94979522272265e-06
5.94973250450021e-06
5.94955832091324e-06
5.94909391666509e-06
5.94790849635912e-06
5.945019187375e-06
5.93831272939763e-06
5.92352956283468e-06
5.89266937420276e-06
5.83182903866827e-06
5.7188414217182e-06
5.5216237133507e-06
5.19864513484406e-06
4.70296873552295e-06
3.99052098174315e-06
3.03159533547871e-06
1.8226815852254e-06
5.47573680672415e-09
2.08308733946302e-11
2.06290975163552e-11
5.44407160268334e-09
1.81649838010175e-06
3.02392020426218e-06
3.98277746745456e-06
4.69617086313489e-06
5.19330439163864e-06
5.51781335646638e-06
5.71635144392136e-06
5.83033110042439e-06
5.89183841530872e-06
5.92310633254154e-06
5.93811864730831e-06
5.94494446405576e-06
5.94789174181098e-06
5.94910350721967e-06
5.94957910604595e-06
5.94975768281586e-06
5.94982191546087e-06
5.94984403092951e-06
5.94985126891748e-06
5.94985346013114e-06
5.94985400454367e-06
5.94985403715478e-06
5.94985392336315e-06
5.94985376472462e-06
5.94985356165441e-06
5.94985321464046e-06
5.94985237477772e-06
5.94984994670587e-06
5.94984263383949e-06
5.94982089388971e-06
5.94975821966129e-06
5.94958414828128e-06
5.94912000718113e-06
5.94793516087761e-06
5.94504702200482e-06
5.93834279379175e-06
5.92356358913469e-06
5.8927099347453e-06
5.83187953834888e-06
5.71890573906069e-06
5.52170533973594e-06
5.19874577808175e-06
4.7030865175157e-06
3.99064845744263e-06
3.03171749471756e-06
1.82277379323442e-06
5.47607442586359e-09
2.08322827533798e-11
2.06190676486591e-11
5.44130566968957e-09
1.81558243907835e-06
3.02245825776425e-06
3.98091252526988e-06
4.69402435909562e-06
5.19097307087895e-06
5.51536882287975e-06
5.7138425997885e-06
5.82778860126804e-06
5.88927982751553e-06
5.92054084612549e-06
5.93555057539327e-06
5.94237561213748e-06
5.94532276095258e-06
5.94653458148058e-06
5.94701026003059e-06
5.94718890073357e-06
5.94725317894288e-06
5.94727532699729e-06
5.94728258935263e-06
5.94728479955642e-06
5.94728535975448e-06
5.94728540531657e-06
5.9472853013254e-06
5.94728515009129e-06
5.947284952286e-06
5.94728460864716e-06
5.94728377091152e-06
5.94728134558585e-06
5.94727404125353e-06
5.94725232914997e-06
5.94718973569614e-06
5.94701587747503e-06
5.94655226048031e-06
5.94536862996738e-06
5.94248316657591e-06
5.93578453370238e-06
5.92101644970329e-06
5.89018378319627e-06
5.82939096152973e-06
5.71648091818188e-06
5.51938299134796e-06
5.19657943362044e-06
4.7011452400933e-06
3.98901516397694e-06
3.03048439531579e-06
1.82203502059878e-06
5.47396747636289e-09
2.08250344378875e-11
2.05988217532839e-11
5.43571012892699e-09
1.81371617804562e-06
3.01945115265156e-06
3.97704418412886e-06
4.68953890691187e-06
5.18607025366617e-06
5.51020072441279e-06
5.70851653250089e-06
5.82237458699699e-06
5.88382009952542e-06
5.91505895699761e-06
5.93005867396089e-06
5.93687950661023e-06
5.93982502658687e-06
5.94103627633041e-06
5.9415117852175e-06
5.94169039485141e-06
5.94175468404556e-06
5.94177685271678e-06
5.9417841355228e-06
5.941786363397e-06
5.94178693879856e-06
5.94178699691497e-06
5.94178690230736e-06
5.94178675801692e-06
5.94178656497193e-06
5.94178622425997e-06
5.94178538856853e-06
5.94178296718776e-06
5.94177567647454e-06
5.94175400832546e-06
5.94169154149334e-06
5.94151801909241e-06
5.94105523875141e-06
5.93987358511483e-06
5.93699256812175e-06
5.93030346182243e-06
5.91555480631884e-06
5.88475980213416e-06
5.82403626754821e-06
5.71124701906546e-06
5.51434845622374e-06
5.1918562599469e-06
4.69688236695275e-06
3.98539712344983e-06
3.02772390140217e-06
1.82035977722011e-06
5.46909926243194e-09
2.080798297268e-11
2.05657531048748e-11
5.42658206264445e-09
1.81066929992045e-06