/*--------------------------------*- C++ -*----------------------------------*\
  =========                 |
  \\      /  F ield         | OpenFOAM: The Open Source CFD Toolbox
   \\    /   O peration     | Website:  https://openfoam.org
    \\  /    A nd           | Version:  10
     \\/     M anipulation  |
\*---------------------------------------------------------------------------*/
FoamFile
{
    format      ascii;
    class       volScalarField;
    location    "6";
    object      omega;
}
// * * * * * * * * * * * * * * * * * * * * * * * * * * * * * * * * * * * * * //

dimensions      [0 0 -1 0 0 0 0];

internalField   nonuniform List<scalar> 
2500
(
128027.224075069
128038.554353847
128034.700373289
128032.063378633
128030.538430279
128029.707529317
128029.270499692
128029.048180295
128028.939550362
128028.889272635
128028.866416484
128028.856582948
128028.852501136
128028.850570012
128028.849569629
128028.848848007
128028.848514477
128028.848155478
128028.847768061
128028.847506893
128028.847284281
128028.847093489
128028.846936655
128028.84684347
128028.846743364
128028.846658694
128028.846630903
128028.846620953
128028.846638393
128028.846687957
128028.846771653
128028.846929688
128028.847109073
128028.847344098
128028.847660026
128028.848154962
128028.84907514
128028.850932715
128028.855535464
128028.865920803
128028.889522763
128028.941470705
128029.0513174
128029.273872996
128029.709589522
128030.534218152
128032.053833403
128034.702769347
128038.591096663
128027.184846938
31890.6434528316
14171.9386883682
14170.097981666
14168.854303662
14168.1134804634
14167.6944326693
14167.4650467711
14167.3438952189
14167.2826078272
14167.2530725384
14167.239504436
14167.2335752312
14167.2311053883
14167.2301083252
14167.2297126196
14167.2295492431
14167.2294837538
14167.2294468341
14167.2294181642
14167.2293979345
14167.2293807643
14167.2293651442
14167.2293519107
14167.2293430615
14167.2293351912
14167.229328382
14167.2293250105
14167.229322925
14167.2293219196
14167.2293236023
14167.2293279347
14167.229337402
14167.2293567413
14167.2293923411
14167.2294633997
14167.2296354636
14167.2300729361
14167.2311696744
14167.2338558929
14167.2401412277
14167.2542445872
14167.2844830587
14167.3463837393
14167.4675808353
14167.6957734712
14168.1121332757
14168.8514362378
14170.1026253911
14171.9638593982
31890.607073216
31785.1379566201
3530.99319470118
50.8371547066728
50.8311572892821
50.8276152896801
50.8256189240162
50.8245273623349
50.8239503710459
50.8236577647631
50.8235161852561
50.8234509259858
50.8234223015834
50.8234103452247
50.8234055574084
50.8234037057554
50.8234030001165
50.8234027389909
50.8234026256382
50.8234025583778
50.8234025138244
50.8234024756209
50.8234024382449
50.8234024049312
50.8234023821029
50.8234023638616
50.8234023477833
50.8234023385725
50.8234023312918
50.8234023242792
50.8234023224545
50.8234023252765
50.8234023421758
50.8234024047057
50.8234025399253
50.823402838824
50.8234036200545
50.8234056783458
50.8234109194576
50.8234237677512
50.8234538782482
50.8235213589718
50.8236657566801
50.8239607988854
50.8245378461347
50.8256244650744
50.8276112422744
50.8311538377439
50.8372039362463
3531.00616980452
31785.2040410374
31694.2751056531
3520.80431496567
50.6904960811596
50.6847680982289
50.6814897590937
50.679694622711
50.6787377975056
50.678242564119
50.6779955983467
50.6778776682087
50.6778238929139
50.6778005127855
50.6777908230763
50.6777869805379
50.6777855168549
50.6777849779126
50.6777847885878
50.6777847170317
50.6777846817964
50.6777846600994
50.677784640517
50.6777846187757
50.6777845976652
50.6777845830517
50.6777845726552
50.677784563388
50.6777845575452
50.6777845519378
50.6777845449428
50.6777845409212
50.6777845377892
50.6777845371568
50.6777845772643
50.6777846773125
50.6777848955062
50.6777854878342
50.6777870870411
50.6777912257261
50.677801495303
50.6778258618406
50.67788115609
50.6780010940319
50.6782499752692
50.6787457136128
50.6796999982653
50.6814911992472
50.6847806107334
50.6905804524231
3520.82277452157
31694.4889217417
31624.9182416635
3513.16778588313
50.5821293334489
50.5775905865072
50.5750767825457
50.5737411905929
50.5730476733966
50.5726960996772
50.5725234797308
50.5724419713986
50.5724051026933
50.5723891649766
50.5723825893358
50.5723799951667
50.5723790161579
50.5723786644984
50.5723785473206
50.5723785087273
50.5723784936615
50.5723784860005
50.5723784785366
50.5723784678996
50.5723784558895
50.5723784475112
50.5723784424751
50.5723784379829
50.5723784348339
50.5723784311573
50.5723784257808
50.5723784214826
50.5723784160992
50.5723784081233
50.5723784299884
50.57237849221
50.5723786271869
50.5723790075756
50.5723800538938
50.5723827932085
50.5723896532927
50.5724060800598
50.5724437221226
50.5725262961281
50.572700006639
50.5730520304955
50.5737446783589
50.5750804151657
50.5776106009412
50.5822248579372
3513.18791638031
31625.229727279
31577.2274556669
3508.02776682642
50.5102359265358
50.5071028596659
50.5054221219876
50.504554946747
50.5041158920052
50.5038976333848
50.5037919510613
50.5037425068485
50.5037202687944
50.5037106869478
50.5037067415304
50.5037051887338
50.5037046064606
50.5037044015543
50.5037043370801
50.5037043187709
50.5037043136659
50.503704313195
50.5037043125716
50.5037043087098
50.5037043026239
50.5037042983585
50.5037042965031
50.5037042948104
50.503704293365
50.5037042912577
50.5037042877547
50.503704284211
50.5037042789769
50.5037042701816
50.5037042801589
50.5037043136296
50.5037043875273
50.5037046055572
50.5037052143124
50.5037068209205
50.5037108713523
50.5037206329201
50.5037431619122
50.5037930224109
50.5038991365522
50.5041175509722
50.5045563175585
50.5054249751123
50.5071212098839
50.5103194293573
3508.04574591935
31577.55439174
31547.3186035345
3504.87877807888
50.4668220347525
50.4648858682468
50.4638781692731
50.4633725276506
50.4631226039438
50.4630006286274
50.4629423008498
50.4629152166313
50.4629030818416
50.4628978603688
50.4628957107716
50.4628948653016
50.462894549807
50.4628944406694
50.4628944083408
50.4628944020845
50.4628944024086
50.46289440296
50.4628944037175
50.4628944034021
50.4628944006892
50.46289439883
50.462894398629
50.4628943982319
50.4628943976747
50.4628943966365
50.462894394605
50.4628943921138
50.4628943881199
50.4628943813623
50.4628943848103
50.4628944003975
50.4628944371088
50.4628945516611
50.4628948751811
50.4628957333717
50.4628979069441
50.4629031669584
50.4629153655079
50.4629425433322
50.4630009429365
50.4631228320559
50.4633724962057
50.4638793328266
50.4648983592169
50.4668825594607
3504.89249456106
31547.5978272507
31530.0386346487
3503.10381111729
50.4426973970229
50.4416067167989
50.4410549506338
50.4407852490064
50.4406549522124
50.4405924555529
50.4405629080147
50.440549272921
50.4405431784908
50.4405405559286
50.4405394750388
50.4405390497229
50.4405388916762
50.4405388378968
50.4405388236295
50.4405388224152
50.4405388235165
50.4405388246173
50.4405388252981
50.4405388255458
50.4405388247912
50.4405388242524
50.4405388246336
50.4405388246628
50.4405388244752
50.440538824005
50.4405388229149
50.4405388213571
50.4405388187785
50.4405388148775
50.4405388149853
50.4405388208191
50.440538838103
50.4405388941419
50.4405390537383
50.4405394783478
50.4405405568378
50.4405431723602
50.4405492549715
50.4405628703525
50.4405923570976
50.4406546688714
50.4407846395085
50.4410548548499
50.441613465691
50.4427352355717
3503.11300885836
31530.2436362655
31520.7637477553
3502.17507181081
50.4302496678152
50.4296821794443
50.4294026132417
50.4292692814584
50.4292062480482
50.4291765095536
50.4291625967387
50.4291562099803
50.4291533590239
50.4291521307833
50.4291516235127
50.4291514236941
50.4291513497236
50.4291513251091
50.4291513193327
50.4291513195023
50.4291513205435
50.4291513214837
50.4291513219592
50.429151322188
50.4291513221987
50.4291513222983
50.4291513226211
50.4291513227632
50.4291513227155
50.429151322476
50.4291513219209
50.4291513210315
50.4291513195471
50.4291513174439
50.4291513168539
50.4291513187251
50.429151326122
50.4291513518676
50.4291514257524
50.4291516226442
50.4291521234083
50.4291533383249
50.4291561664154
50.4291625151615
50.4291763501648
50.4292059104326
50.4292686219683
50.4294019842036
50.4296850718596
50.4302705744795
3502.1806049594
31520.8972557208
31516.10578099
3501.72056019874
50.4242409419797
50.4239654264162
50.4238330243641
50.4237713178803
50.4237427407945
50.4237294702571
50.423723322907
50.4237205135765
50.4237192601332
50.4237187190758
50.423718495005
50.4237184066181
50.4237183740201
50.423718363475
50.4237183613206
50.423718361681
50.4237183623909
50.4237183630111
50.4237183633942
50.4237183636244
50.4237183637205
50.4237183638501
50.4237183640595
50.423718364179
50.4237183641679
50.4237183640444
50.4237183637735
50.4237183633025
50.4237183625211
50.4237183614605
50.4237183610135
50.4237183614619
50.4237183643431
50.4237183755296
50.4237184078882
50.4237184942116
50.4237187137613
50.4237192458095
50.4237204834684
50.4237232653668
50.4237293561913
50.4237424973574
50.4237708209822
50.4238323594399
50.4239663160459
50.4242513128755
3501.72359246738
31516.1845058789
31513.9035517361
3501.51118992327
50.4215101542417
50.4213843162905
50.4213252318584
50.4212982844273
50.421286047145
50.4212804505506
50.4212778823946
50.4212767133906
50.4212761917516
50.4212759660154
50.4212758722339
50.4212758351848
50.4212758215713
50.421275817317
50.421275816582
50.4212758168356
50.4212758172427
50.4212758175949
50.4212758178331
50.4212758179845
50.4212758180689
50.4212758181653
50.4212758182806
50.421275818351
50.4212758183468
50.4212758182851
50.4212758181569
50.4212758179227
50.4212758175399
50.4212758170357
50.4212758167922
50.4212758168444
50.421275817884
50.4212758224855
50.4212758359753
50.4212758720076
50.421275963543
50.4212761848194
50.421276698457
50.4212778526982
50.421280388238
50.4212859056064
50.4212979741837
50.421324733835
50.4213843973324
50.4215148184765
3501.51272175303
31513.9462013414
31512.9182341959
3501.41991637518
50.4203355088421
50.4202810757402
50.4202560679279
50.4202448914047
50.420239909869
50.4202376650334
50.4202366442841
50.4202361813143
50.420235974614
50.4202358849058
50.420235847509
50.4202358327129
50.420235827295
50.4202358256584
50.4202358254322
50.4202358255802
50.4202358257886
50.4202358259682
50.4202358260954
50.4202358261791
50.4202358262325
50.4202358262883
50.4202358263443
50.4202358263783
50.4202358263754
50.4202358263452
50.4202358262852
50.4202358261743
50.4202358259973
50.4202358257688
50.4202358256401
50.4202358256158
50.4202358259778
50.4202358277788
50.4202358331594
50.4202358475577
50.4202358840572
50.4202359719755
50.4202361753634
50.420236631695
50.420237636145
50.420239838
50.4202447207498
50.4202557576022
50.4202809344818
50.4203374196374
3501.42063645203
31512.9396975639
31512.4992282069
3501.38209514483
50.419855254571
50.4198328300056
50.4198227355331
50.4198183091976
50.4198163710475
50.4198155100695
50.4198151220386
50.4198149466331
50.4198148682569
50.4198148341348
50.4198148198599
50.4198148142037
50.4198148121408
50.4198148115378
50.419814811476
50.4198148115514
50.4198148116488
50.4198148117327
50.4198148117937
50.4198148118346
50.4198148118624
50.4198148118896
50.4198148119136
50.4198148119272
50.4198148119244
50.4198148119095
50.4198148118812
50.4198148118305
50.419814811752
50.4198148116523
50.4198148115879
50.4198148115618
50.4198148116821
50.4198148123575
50.4198148144192
50.4198148199511
50.4198148339355
50.4198148674717
50.4198149447101
50.4198151175278
50.4198154982274
50.4198163379745
50.4198182238685
50.4198225648883
50.4198326858725
50.4198559668717
3501.38241251679
31512.5093489719
31512.3293354759
3501.36715412813
50.4196681260174
50.4196592863948
50.4196553824336
50.4196537008788
50.4196529768825
50.4196526596872
50.41965251797
50.4196524541138
50.4196524255537
50.4196524130796
50.4196524078426
50.4196524057649
50.4196524050112
50.4196524047995
50.4196524047844
50.4196524048169
50.4196524048588
50.4196524048947
50.4196524049211
50.4196524049388
50.4196524049509
50.419652404962
50.4196524049706
50.4196524049747
50.4196524049718
50.4196524049636
50.4196524049498
50.4196524049266
50.4196524048924
50.4196524048497
50.4196524048186
50.4196524048017
50.4196524048387
50.4196524050815
50.4196524058422
50.419652407892
50.4196524130589
50.4196524253893
50.4196524536406
50.4196525166145
50.4196526552959
50.4196529627691
50.4196536613298
50.4196552970592
50.4196591909418
50.4196683652827
3501.36728610003
31512.3338383932
31512.2635874183
3501.36152619692
50.4195986799012
50.4195953324061
50.4195938801326
50.4195932649674
50.419593004294
50.4195928916043
50.4195928416848
50.4195928192629
50.419592809225
50.4195928048271
50.4195928029746
50.4195928022389
50.4195928019735
50.4195928019012
50.419592801898
50.4195928019112
50.4195928019276
50.4195928019414
50.4195928019513
50.4195928019577
50.4195928019617
50.4195928019649
50.4195928019667
50.4195928019665
50.4195928019635
50.4195928019583
50.4195928019508
50.4195928019396
50.4195928019241
50.4195928019054
50.4195928018902
50.4195928018804
50.4195928018896
50.4195928019721
50.4195928022419
50.4195928029753
50.4195928048205
50.4195928092035
50.4195928191902
50.4195928413522
50.4195928900955
50.4195929986042
50.4195932477318
50.4195938405248
50.4195952799728
50.4195987503303
3501.36157823875
31512.2654886906
31512.2394084553
3501.35951965353
50.4195743705854
50.4195731486342
50.419572627237
50.4195724098057
50.4195723190442
50.4195722803097
50.4195722632953
50.4195722556782
50.4195722522657
50.4195722507666
50.4195722501334
50.4195722498819
50.4195722497916
50.4195722497675
50.4195722497667
50.4195722497713
50.4195722497768
50.4195722497811
50.4195722497838
50.419572249785
50.4195722497852
50.4195722497848
50.4195722497838
50.4195722497819
50.4195722497789
50.419572249775
50.4195722497701
50.4195722497638
50.4195722497559
50.4195722497467
50.4195722497385
50.4195722497322
50.4195722497323
50.4195722497578
50.4195722498487
50.4195722501011
50.4195722507379
50.4195722522463
50.4195722556661
50.4195722632199
50.4195722798017
50.4195723168305
50.4195724026545
50.4195726099627
50.4195731229753
50.4195743873314
3501.35953919818
31512.2401739905
31512.2311336308
3501.35886370415
50.4195666642274
50.4195662330144
50.4195660518353
50.4195659773768
50.4195659467333
50.4195659338176
50.4195659281925
50.4195659256838
50.4195659245601
50.4195659240658
50.4195659238568
50.4195659237739
50.4195659237442
50.4195659237362
50.4195659237357
50.4195659237367
50.4195659237377
50.4195659237381
50.4195659237378
50.4195659237368
50.4195659237353
50.4195659237336
50.4195659237314
50.4195659237288
50.4195659237258
50.4195659237224
50.4195659237186
50.4195659237142
50.4195659237092
50.4195659237037
50.4195659236984
50.4195659236936
50.4195659236909
50.4195659236966
50.4195659237243
50.4195659238064
50.4195659240174
50.4195659245189
50.4195659256536
50.4195659281508
50.4195659336224
50.4195659458722
50.4195659745104
50.4195660446683
50.4195662214479
50.4195666664083
3501.35887071857
31512.2314287758
31512.2287113222
3501.35869252194
50.4195648345022
50.4195646870318
50.4195646259498
50.4195646011893
50.419564591136
50.4195645869511
50.4195645851454
50.4195645843444
50.4195645839867
50.4195645838297
50.4195645837636
50.4195645837376
50.4195645837283
50.4195645837254
50.4195645837248
50.4195645837243
50.4195645837236
50.4195645837226
50.4195645837211
50.4195645837192
50.4195645837171
50.4195645837147
50.4195645837121
50.4195645837093
50.4195645837063
50.4195645837031
50.4195645836997
50.419564583696
50.419564583692
50.4195645836878
50.4195645836836
50.4195645836795
50.4195645836759
50.4195645836749
50.4195645836809
50.4195645837045
50.4195645837698
50.4195645839291
50.419564584292
50.4195645850914
50.4195645868432
50.4195645907772
50.4195646000518
50.4195646230807
50.4195646821235
50.4195648337625
3501.35869493329
31512.2288206566
31512.2283666523
3501.35868929862
50.419565012178
50.4195649632013
50.4195649431831
50.4195649351744
50.4195649319663
50.4195649306489
50.4195649300874
50.419564929841
50.4195649297321
50.4195649296851
50.4195649296656
50.4195649296582
50.4195649296555
50.4195649296543
50.4195649296535
50.4195649296525
50.4195649296512
50.4195649296495
50.4195649296476
50.4195649296454
50.4195649296429
50.4195649296404
50.4195649296376
50.4195649296347
50.4195649296317
50.4195649296285
50.4195649296252
50.4195649296218
50.4195649296183
50.4195649296146
50.4195649296108
50.4195649296069
50.4195649296031
50.4195649295999
50.4195649295986
50.4195649296027
50.4195649296196
50.4195649296657
50.4195649297752
50.4195649300204
50.4195649305622
50.4195649317873
50.4195649347043
50.4195649420473
50.4195649611978
50.4195650113453
3501.35869009278
31512.2284056718
31512.228735396
3501.35874239785
50.4195658533369
50.4195658375159
50.4195658311303
50.4195658286097
50.4195658276153
50.4195658272146
50.4195658270474
50.4195658269761
50.4195658269458
50.4195658269334
50.4195658269288
50.4195658269271
50.4195658269264
50.4195658269258
50.4195658269249
50.4195658269236
50.419565826922
50.4195658269201
50.419565826918
50.4195658269157
50.4195658269131
50.4195658269104
50.4195658269076
50.4195658269047
50.4195658269016
50.4195658268985
50.4195658268953
50.419565826892
50.4195658268886
50.419565826885
50.4195658268814
50.4195658268776
50.4195658268737
50.4195658268698
50.4195658268663
50.4195658268641
50.4195658268654
50.4195658268752
50.4195658269038
50.4195658269731
50.4195658271319
50.4195658274987
50.4195658283874
50.4195658306621
50.4195658367017
50.4195658528209
3501.35874264704
31512.2287488338
31512.2293416472
3501.35881381978
50.4195669071733
50.4195669021986
50.4195669002161
50.4195668994461
50.419566899149
50.4195668990335
50.419566898988
50.4195668989703
50.4195668989639
50.4195668989621
50.4195668989619
50.4195668989619
50.4195668989617
50.4195668989612
50.4195668989602
50.4195668989588
50.4195668989571
50.4195668989551
50.4195668989529
50.4195668989504
50.4195668989479
50.4195668989451
50.4195668989423
50.4195668989393
50.4195668989363
50.4195668989331
50.4195668989299
50.4195668989267
50.4195668989233
50.4195668989198
50.4195668989163
50.4195668989125
50.4195668989087
50.4195668989046
50.4195668989005
50.4195668988963
50.4195668988929
50.4195668988915
50.4195668988951
50.4195668989102
50.4195668989511
50.4195668990535
50.4195668993126
50.4195668999946
50.4195669018462
50.4195669068863
3501.35881389223
31512.2293461052
31512.2300247209
3501.35889103644
50.4195680272638
50.4195680257431
50.4195680251461
50.4195680249202
50.419568024837
50.4195680248078
50.4195680247984
50.4195680247964
50.4195680247969
50.419568024798
50.4195680247989
50.4195680247994
50.4195680247992
50.4195680247986
50.4195680247975
50.419568024796
50.4195680247942
50.4195680247921
50.4195680247898
50.4195680247874
50.4195680247848
50.419568024782
50.4195680247791
50.4195680247761
50.4195680247731
50.41956802477
50.4195680247668
50.4195680247635
50.4195680247602
50.4195680247568
50.4195680247532
50.4195680247496
50.4195680247458
50.4195680247418
50.4195680247375
50.4195680247329
50.4195680247282
50.4195680247236
50.4195680247199
50.419568024719
50.419568024725
50.4195680247484
50.4195680248175
50.4195680250125
50.4195680255618
50.4195680270929
3501.3588910537
31512.230026133
31512.2307319824
3501.35897003807
50.4195691674506
50.419569167002
50.4195691668301
50.4195691667686
50.4195691667489
50.4195691667446
50.4195691667454
50.4195691667475
50.4195691667497
50.4195691667514
50.4195691667524
50.4195691667527
50.4195691667525
50.4195691667517
50.4195691667505
50.4195691667489
50.4195691667471
50.4195691667449
50.4195691667426
50.41956916674
50.4195691667374
50.4195691667346
50.4195691667317
50.4195691667287
50.4195691667257
50.4195691667225
50.4195691667193
50.4195691667161
50.4195691667128
50.4195691667094
50.419569166706
50.4195691667024
50.4195691666986
50.4195691666947
50.4195691666905
50.419569166686
50.4195691666811
50.4195691666758
50.4195691666704
50.4195691666652
50.4195691666616
50.4195691666624
50.4195691666762
50.4195691667265
50.4195691668816
50.4195691673301
3501.35897003861
31512.2307323898
31512.2314466696
3501.35904957615
50.419570313583
50.4195703134587
50.4195703134135
50.4195703134001
50.4195703133983
50.4195703134004
50.4195703134035
50.4195703134063
50.4195703134085
50.41957031341
50.4195703134108
50.4195703134109
50.4195703134105
50.4195703134096
50.4195703134083
50.4195703134066
50.4195703134046
50.4195703134025
50.4195703134001
50.4195703133975
50.4195703133948
50.419570313392
50.419570313389
50.419570313386
50.4195703133829
50.4195703133798
50.4195703133767
50.4195703133734
50.4195703133702
50.4195703133668
50.4195703133635
50.41957031336
50.4195703133563
50.4195703133525
50.4195703133485
50.4195703133441
50.4195703133394
50.4195703133342
50.4195703133287
50.4195703133228
50.419570313317
50.4195703133121
50.4195703133108
50.4195703133198
50.419570313359
50.4195703134822
3501.3590495718
31512.2314467558
31512.232163583
3501.35912927176
50.4195714614336
50.4195714614047
50.4195714613959
50.4195714613955
50.419571461398
50.4195714614013
50.4195714614044
50.4195714614068
50.4195714614087
50.4195714614098
50.4195714614103
50.4195714614101
50.4195714614095
50.4195714614084
50.419571461407
50.4195714614051
50.4195714614031
50.4195714614008
50.4195714613983
50.4195714613957
50.419571461393
50.4195714613901
50.4195714613872
50.4195714613841
50.4195714613811
50.4195714613779
50.4195714613748
50.4195714613716
50.4195714613684
50.4195714613651
50.4195714613618
50.4195714613584
50.4195714613549
50.4195714613512
50.4195714613473
50.4195714613433
50.4195714613388
50.4195714613341
50.4195714613289
50.4195714613233
50.4195714613175
50.4195714613118
50.419571461307
50.4195714613052
50.4195714613117
50.4195714613399
3501.35912926601
31512.2321635701
31512.2328811492
3501.35920901264
50.4195726097701
50.4195726097681
50.4195726097689
50.4195726097714
50.4195726097743
50.4195726097771
50.4195726097796
50.4195726097814
50.4195726097827
50.4195726097834
50.4195726097835
50.4195726097831
50.4195726097822
50.4195726097809
50.4195726097793
50.4195726097774
50.4195726097752
50.4195726097728
50.4195726097703
50.4195726097676
50.4195726097648
50.4195726097619
50.419572609759
50.419572609756
50.4195726097529
50.4195726097498
50.4195726097466
50.4195726097435
50.4195726097403
50.4195726097371
50.4195726097338
50.4195726097305
50.4195726097271
50.4195726097237
50.41957260972
50.4195726097162
50.4195726097121
50.4195726097077
50.4195726097031
50.4195726096982
50.419572609693
50.4195726096878
50.4195726096829
50.419572609679
50.4195726096771
50.4195726096787
3501.35920900649
31512.2328811035
31512.2335989029
3501.35928876627
50.4195737582413
50.4195737582462
50.4195737582489
50.4195737582513
50.4195737582535
50.4195737582555
50.4195737582572
50.4195737582584
50.419573758259
50.4195737582592
50.4195737582589
50.4195737582582
50.4195737582571
50.4195737582556
50.4195737582538
50.4195737582517
50.4195737582495
50.419573758247
50.4195737582445
50.4195737582417
50.4195737582389
50.4195737582359
50.419573758233
50.4195737582299
50.4195737582268
50.4195737582237
50.4195737582206
50.4195737582175
50.4195737582143
50.4195737582112
50.4195737582081
50.4195737582048
50.4195737582016
50.4195737581983
50.4195737581949
50.4195737581913
50.4195737581876
50.4195737581838
50.4195737581797
50.4195737581755
50.4195737581711
50.4195737581668
50.4195737581627
50.419573758159
50.4195737581556
50.4195737581504
3501.35928875996
31512.233598849
31512.2343167094
3501.35936852343
50.4195749067492
50.4195749067552
50.4195749067577
50.4195749067592
50.4195749067606
50.4195749067616
50.4195749067625
50.4195749067629
50.419574906763
50.4195749067628
50.419574906762
50.419574906761
50.4195749067596
50.4195749067578
50.4195749067559
50.4195749067537
50.4195749067513
50.4195749067488
50.4195749067461
50.4195749067433
50.4195749067404
50.4195749067374
50.4195749067344
50.4195749067314
50.4195749067283
50.4195749067252
50.4195749067221
50.419574906719
50.4195749067159
50.4195749067129
50.4195749067098
50.4195749067067
50.4195749067036
50.4195749067005
50.4195749066974
50.4195749066942
50.4195749066908
50.4195749066874
50.419574906684
50.4195749066804
50.4195749066769
50.4195749066735
50.4195749066703
50.4195749066675
50.4195749066645
50.4195749066583
3501.35936851711
31512.2343166526
31512.2350345305
3501.35944828156
50.419576055267
50.4195760552726
50.4195760552743
50.4195760552748
50.4195760552751
50.4195760552753
50.4195760552753
50.4195760552751
50.4195760552746
50.4195760552738
50.4195760552726
50.4195760552713
50.4195760552696
50.4195760552677
50.4195760552655
50.4195760552632
50.4195760552607
50.419576055258
50.4195760552552
50.4195760552524
50.4195760552495
50.4195760552465
50.4195760552434
50.4195760552404
50.4195760552373
50.4195760552342
50.4195760552311
50.4195760552281
50.4195760552251
50.419576055222
50.4195760552191
50.4195760552161
50.4195760552132
50.4195760552103
50.4195760552074
50.4195760552045
50.4195760552016
50.4195760551986
50.4195760551957
50.4195760551929
50.4195760551901
50.4195760551877
50.4195760551855
50.4195760551838
50.4195760551816
50.4195760551758
3501.3594482752
31512.2350344738
31512.2357523558
3501.35952803996
50.4195772037877
50.4195772037923
50.419577203793
50.4195772037925
50.4195772037918
50.4195772037911
50.4195772037903
50.4195772037894
50.4195772037883
50.419577203787
50.4195772037855
50.4195772037838
50.4195772037818
50.4195772037796
50.4195772037773
50.4195772037748
50.4195772037722
50.4195772037694
50.4195772037666
50.4195772037636
50.4195772037606
50.4195772037576
50.4195772037546
50.4195772037515
50.4195772037484
50.4195772037453
50.4195772037423
50.4195772037393
50.4195772037363
50.4195772037334
50.4195772037305
50.4195772037277
50.419577203725
50.4195772037223
50.4195772037196
50.419577203717
50.4195772037145
50.419577203712
50.4195772037097
50.4195772037076
50.4195772037056
50.4195772037041
50.4195772037029
50.4195772037022
50.419577203701
50.4195772036961
3501.35952803361
31512.2357522986
31512.2364701823
3501.35960779844
50.4195783523091
50.4195783523128
50.4195783523124
50.4195783523109
50.4195783523093
50.4195783523077
50.4195783523061
50.4195783523045
50.4195783523028
50.4195783523011
50.4195783522991
50.4195783522971
50.4195783522948
50.4195783522924
50.4195783522899
50.4195783522872
50.4195783522845
50.4195783522816
50.4195783522786
50.4195783522757
50.4195783522726
50.4195783522695
50.4195783522665
50.4195783522634
50.4195783522603
50.4195783522573
50.4195783522543
50.4195783522513
50.4195783522484
50.4195783522455
50.4195783522428
50.4195783522401
50.4195783522375
50.4195783522351
50.4195783522327
50.4195783522304
50.4195783522283
50.4195783522263
50.4195783522246
50.419578352223
50.4195783522219
50.4195783522212
50.419578352221
50.4195783522214
50.4195783522212
50.4195783522173
3501.35960779203
31512.2364701248
31512.2371880093
3501.35968755696
50.419579500831
50.4195795008336
50.4195795008322
50.4195795008296
50.4195795008271
50.4195795008246
50.4195795008223
50.41957950082
50.4195795008178
50.4195795008155
50.4195795008132
50.4195795008108
50.4195795008082
50.4195795008056
50.4195795008029
50.4195795008
50.4195795007972
50.4195795007942
50.4195795007912
50.4195795007881
50.419579500785
50.4195795007819
50.4195795007788
50.4195795007757
50.4195795007726
50.4195795007696
50.4195795007666
50.4195795007637
50.4195795007608
50.4195795007581
50.4195795007555
50.4195795007529
50.4195795007505
50.4195795007483
50.4195795007461
50.4195795007442
50.4195795007425
50.419579500741
50.4195795007397
50.4195795007389
50.4195795007385
50.4195795007387
50.4195795007394
50.4195795007408
50.4195795007416
50.4195795007388
3501.35968755048
31512.2371879493
31512.2379058365
3501.35976731551
50.4195806493532
50.4195806493546
50.4195806493521
50.4195806493486
50.4195806493451
50.4195806493418
50.4195806493387
50.4195806493358
50.4195806493331
50.4195806493303
50.4195806493275
50.4195806493248
50.419580649322
50.4195806493191
50.4195806493162
50.4195806493132
50.4195806493102
50.4195806493071
50.419580649304
50.4195806493009
50.4195806492977
50.4195806492946
50.4195806492915
50.4195806492884
50.4195806492853
50.4195806492822
50.4195806492793
50.4195806492764
50.4195806492737
50.419580649271
50.4195806492685
50.4195806492661
50.4195806492639
50.4195806492618
50.41958064926
50.4195806492584
50.419580649257
50.419580649256
50.4195806492553
50.4195806492551
50.4195806492554
50.4195806492564
50.419580649258
50.4195806492604
50.4195806492623
50.4195806492606
3501.35976730904
31512.2379057774
31512.2386236641
3501.35984707408
50.4195817978756
50.4195817978758
50.4195817978723
50.4195817978676
50.4195817978633
50.4195817978592
50.4195817978554
50.4195817978519
50.4195817978485
50.4195817978453
50.4195817978422
50.4195817978391
50.419581797836
50.4195817978329
50.4195817978298
50.4195817978267
50.4195817978235
50.4195817978203
50.4195817978171
50.4195817978139
50.4195817978107
50.4195817978075
50.4195817978044
50.4195817978012
50.4195817977982
50.4195817977952
50.4195817977923
50.4195817977894
50.4195817977867
50.4195817977842
50.4195817977818
50.4195817977795
50.4195817977775
50.4195817977756
50.4195817977741
50.4195817977727
50.4195817977718
50.4195817977712
50.4195817977711
50.4195817977715
50.4195817977725
50.4195817977743
50.4195817977768
50.4195817977802
50.4195817977831
50.4195817977827
3501.35984706763
31512.2386236058
31512.2393414919
3501.35992683268
50.4195829463982
50.4195829463971
50.4195829463925
50.4195829463868
50.4195829463816
50.4195829463767
50.4195829463722
50.4195829463681
50.4195829463642
50.4195829463606
50.4195829463571
50.4195829463536
50.4195829463503
50.4195829463469
50.4195829463437
50.4195829463403
50.4195829463371
50.4195829463338
50.4195829463305
50.4195829463272
50.419582946324
50.4195829463208
50.4195829463176
50.4195829463144
50.4195829463114
50.4195829463084
50.4195829463055
50.4195829463028
50.4195829463001
50.4195829462976
50.4195829462953
50.4195829462932
50.4195829462913