/*--------------------------------*- C++ -*----------------------------------*\
  =========                 |
  \\      /  F ield         | OpenFOAM: The Open Source CFD Toolbox
   \\    /   O peration     | Website:  https://openfoam.org
    \\  /    A nd           | Version:  10
     \\/     M anipulation  |
\*---------------------------------------------------------------------------*/
FoamFile
{
    format      ascii;
    class       volScalarField;
    location    "6";
    object      p;
}
// * * * * * * * * * * * * * * * * * * * * * * * * * * * * * * * * * * * * * //

dimensions      [1 -1 -2 0 0 0 0];

internalField   nonuniform List<scalar> 
2500
(
100092.32280259
100092.322803627
100092.322804612
100092.322805452
100092.322805996
100092.322806354
100092.322806571
100092.322806702
100092.322806778
100092.32280682
100092.322806842
100092.322806852
100092.322806855
100092.322806853
100092.322806849
100092.322806843
100092.322806837
100092.322806829
100092.322806822
100092.322806815
100092.322806808
100092.322806801
100092.322806795
100092.322806789
100092.322806783
100092.322806777
100092.322806773
100092.322806768
100092.322806764
100092.322806761
100092.322806757
100092.322806755
100092.322806752
100092.322806749
100092.322806747
100092.322806743
100092.322806739
100092.322806732
100092.322806721
100092.322806703
100092.322806673
100092.322806624
100092.322806541
100092.322806404
100092.322806183
100092.322805821
100092.322805271
100092.322804423
100092.322803421
100092.322802382
100092.320554298
100092.320555092
100092.320555876
100092.320556593
100092.320557071
100092.320557395
100092.320557593
100092.320557714
100092.320557785
100092.320557825
100092.320557846
100092.320557855
100092.320557858
100092.320557856
100092.320557852
100092.320557846
100092.32055784
100092.320557833
100092.320557826
100092.320557818
100092.320557811
100092.320557805
100092.320557798
100092.320557792
100092.320557786
100092.320557781
100092.320557776
100092.320557772
100092.320557768
100092.320557764
100092.320557761
100092.320557758
100092.320557755
100092.320557753
100092.32055775
100092.320557746
100092.320557742
100092.320557735
100092.320557724
100092.320557707
100092.320557678
100092.320557631
100092.320557554
100092.320557427
100092.320557223
100092.320556895
100092.320556412
100092.320555686
100092.320554887
100092.320554092
100092.318297541
100092.318298088
100092.31829855
100092.318299044
100092.318299379
100092.31829962
100092.31829977
100092.318299865
100092.318299922
100092.318299954
100092.318299971
100092.318299978
100092.31829998
100092.318299978
100092.318299974
100092.318299968
100092.318299962
100092.318299955
100092.318299948
100092.318299941
100092.318299934
100092.318299927
100092.318299921
100092.318299914
100092.318299909
100092.318299903
100092.318299899
100092.318299894
100092.31829989
100092.318299887
100092.318299883
100092.31829988
100092.318299878
100092.318299875
100092.318299872
100092.318299869
100092.318299864
100092.318299858
100092.318299848
100092.318299833
100092.318299808
100092.318299769
100092.318299706
100092.318299605
100092.31829945
100092.318299204
100092.318298862
100092.31829836
100092.318297884
100092.318297328
100092.31603355
100092.316033812
100092.316033967
100092.31603421
100092.316034379
100092.316034515
100092.316034604
100092.316034664
100092.316034701
100092.316034723
100092.316034735
100092.31603474
100092.31603474
100092.316034737
100092.316034733
100092.316034727
100092.316034721
100092.316034714
100092.316034707
100092.3160347
100092.316034693
100092.316034686
100092.31603468
100092.316034674
100092.316034668
100092.316034663
100092.316034658
100092.316034654
100092.31603465
100092.316034646
100092.316034643
100092.31603464
100092.316034637
100092.316034634
100092.316034632
100092.316034628
100092.316034624
100092.316034619
100092.31603461
100092.316034598
100092.316034579
100092.31603455
100092.316034507
100092.316034441
100092.316034346
100092.316034205
100092.316034029
100092.316033777
100092.316033612
100092.316033336
100092.313763753
100092.313763771
100092.313763711
100092.313763754
100092.31376379
100092.313763837
100092.313763873
100092.313763902
100092.313763921
100092.313763932
100092.313763939
100092.31376394
100092.313763939
100092.313763936
100092.313763931
100092.313763925
100092.313763918
100092.313763912
100092.313763905
100092.313763898
100092.313763891
100092.313763884
100092.313763878
100092.313763872
100092.313763866
100092.313763861
100092.313763856
100092.313763852
100092.313763848
100092.313763844
100092.313763841
100092.313763838
100092.313763835
100092.313763832
100092.31376383
100092.313763827
100092.313763823
100092.313763818
100092.313763812
100092.313763803
100092.313763789
100092.313763771
100092.313763745
100092.313763711
100092.31376367
100092.313763616
100092.313763575
100092.313763525
100092.313763577
100092.313763545
100092.311489711
100092.311489566
100092.311489387
100092.311489297
100092.31148924
100092.311489224
100092.31148922
100092.311489224
100092.311489228
100092.311489231
100092.311489232
100092.311489231
100092.311489228
100092.311489224
100092.311489218
100092.311489212
100092.311489206
100092.311489199
100092.311489192
100092.311489185
100092.311489178
100092.311489171
100092.311489165
100092.311489159
100092.311489153
100092.311489148
100092.311489143
100092.311489139
100092.311489135
100092.311489131
100092.311489128
100092.311489125
100092.311489123
100092.31148912
100092.311489118
100092.311489115
100092.311489112
100092.311489108
100092.311489104
100092.311489097
100092.311489089
100092.31148908
100092.311489069
100092.31148906
100092.311489058
100092.311489069
100092.31148912
100092.311489205
100092.311489379
100092.311489513
100092.309212884
100092.309212663
100092.309212441
100092.309212278
100092.30921217
100092.309212113
100092.309212083
100092.309212068
100092.309212061
100092.309212057
100092.309212054
100092.30921205
100092.309212045
100092.30921204
100092.309212033
100092.309212027
100092.30921202
100092.309212013
100092.309212006
100092.309211999
100092.309211992
100092.309211986
100092.309211979
100092.309211973
100092.309211968
100092.309211963
100092.309211958
100092.309211954
100092.30921195
100092.309211946
100092.309211943
100092.30921194
100092.309211937
100092.309211935
100092.309211933
100092.309211931
100092.309211929
100092.309211926
100092.309211923
100092.30921192
100092.309211916
100092.309211914
100092.309211915
100092.309211924
100092.309211949
100092.309212001
100092.309212105
100092.309212262
100092.309212482
100092.309212695
100092.306934397
100092.306934166
100092.306933947
100092.306933759
100092.306933629
100092.306933549
100092.306933502
100092.306933475
100092.30693346
100092.30693345
100092.306933442
100092.306933436
100092.30693343
100092.306933423
100092.306933416
100092.306933409
100092.306933402
100092.306933395
100092.306933388
100092.306933381
100092.306933374
100092.306933368
100092.306933362
100092.306933356
100092.30693335
100092.306933345
100092.30693334
100092.306933336
100092.306933332
100092.306933328
100092.306933325
100092.306933323
100092.30693332
100092.306933318
100092.306933316
100092.306933315
100092.306933313
100092.306933312
100092.30693331
100092.30693331
100092.30693331
100092.306933314
100092.306933324
100092.306933346
100092.306933388
100092.306933462
100092.306933588
100092.306933772
100092.30693399
100092.306934217
100092.304655008
100092.304654803
100092.304654609
100092.304654423
100092.30465429
100092.304654201
100092.304654145
100092.30465411
100092.304654088
100092.304654073
100092.304654063
100092.304654054
100092.304654046
100092.304654038
100092.304654031
100092.304654024
100092.304654016
100092.304654009
100092.304654002
100092.304653995
100092.304653988
100092.304653982
100092.304653975
100092.30465397
100092.304653964
100092.304653959
100092.304653954
100092.30465395
100092.304653946
100092.304653943
100092.30465394
100092.304653937
100092.304653935
100092.304653933
100092.304653931
100092.30465393
100092.304653929
100092.304653929
100092.30465393
100092.304653931
100092.304653935
100092.304653944
100092.30465396
100092.30465399
100092.304654042
100092.304654126
100092.304654255
100092.304654438
100092.30465463
100092.304654833
100092.30237517
100092.302375004
100092.302374842
100092.302374674
100092.302374548
100092.302374458
100092.302374398
100092.302374358
100092.302374331
100092.302374313
100092.302374299
100092.302374289
100092.302374279
100092.302374271
100092.302374263
100092.302374255
100092.302374247
100092.30237424
100092.302374233
100092.302374226
100092.302374219
100092.302374212
100092.302374206
100092.3023742
100092.302374195
100092.30237419
100092.302374185
100092.302374181
100092.302374177
100092.302374174
100092.302374171
100092.302374168
100092.302374166
100092.302374165
100092.302374163
100092.302374163
100092.302374163
100092.302374163
100092.302374165
100092.302374169
100092.302374176
100092.302374189
100092.30237421
100092.302374245
100092.3023743
100092.302374387
100092.302374509
100092.302374676
100092.302374836
100092.302375001
100092.300095133
100092.300095006
100092.300094874
100092.300094728
100092.300094614
100092.300094527
100092.300094466
100092.300094423
100092.300094394
100092.300094373
100092.300094357
100092.300094345
100092.300094334
100092.300094325
100092.300094316
100092.300094308
100092.3000943
100092.300094292
100092.300094285
100092.300094278
100092.300094271
100092.300094265
100092.300094259
100092.300094253
100092.300094248
100092.300094243
100092.300094238
100092.300094234
100092.30009423
100092.300094227
100092.300094224
100092.300094222
100092.30009422
100092.300094218
100092.300094217
100092.300094217
100092.300094218
100092.30009422
100092.300094223
100092.300094229
100092.300094238
100092.300094253
100092.300094277
100092.300094315
100092.300094372
100092.300094455
100092.300094566
100092.300094711
100092.300094841
100092.300094968
100092.297815019
100092.297814924
100092.297814819
100092.297814694
100092.297814593
100092.297814512
100092.297814453
100092.297814409
100092.297814378
100092.297814355
100092.297814338
100092.297814324
100092.297814312
100092.297814302
100092.297814293
100092.297814285
100092.297814276
100092.297814269
100092.297814261
100092.297814254
100092.297814248
100092.297814241
100092.297814235
100092.29781423
100092.297814224
100092.297814219
100092.297814215
100092.297814211
100092.297814207
100092.297814204
100092.297814201
100092.297814199
100092.297814197
100092.297814196
100092.297814195
100092.297814195
100092.297814197
100092.297814199
100092.297814204
100092.297814211
100092.297814222
100092.29781424
100092.297814265
100092.297814304
100092.29781436
100092.297814438
100092.297814536
100092.297814659
100092.297814763
100092.297814859
100092.295534885
100092.295534814
100092.29553473
100092.295534626
100092.295534538
100092.295534463
100092.295534407
100092.295534364
100092.295534332
100092.295534308
100092.295534289
100092.295534274
100092.295534262
100092.295534251
100092.295534241
100092.295534232
100092.295534224
100092.295534216
100092.295534209
100092.295534202
100092.295534195
100092.295534189
100092.295534183
100092.295534177
100092.295534172
100092.295534167
100092.295534163
100092.295534159
100092.295534155
100092.295534152
100092.295534149
100092.295534147
100092.295534145
100092.295534144
100092.295534144
100092.295534145
100092.295534146
100092.29553415
100092.295534155
100092.295534164
100092.295534176
100092.295534195
100092.295534222
100092.29553426
100092.295534313
100092.295534384
100092.295534471
100092.295534574
100092.295534657
100092.295534729
100092.293254752
100092.293254699
100092.293254632
100092.293254546
100092.293254469
100092.293254402
100092.293254349
100092.293254307
100092.293254275
100092.293254251
100092.293254231
100092.293254216
100092.293254202
100092.293254191
100092.293254181
100092.293254172
100092.293254164
100092.293254156
100092.293254148
100092.293254141
100092.293254135
100092.293254129
100092.293254123
100092.293254117
100092.293254112
100092.293254107
100092.293254103
100092.293254099
100092.293254095
100092.293254092
100092.293254089
100092.293254087
100092.293254086
100092.293254085
100092.293254085
100092.293254086
100092.293254088
100092.293254092
100092.293254098
100092.293254107
100092.293254121
100092.29325414
100092.293254167
100092.293254205
100092.293254254
100092.293254319
100092.293254393
100092.29325448
100092.293254547
100092.2932546
100092.29097463
100092.29097459
100092.290974536
100092.290974464
100092.290974398
100092.290974338
100092.290974289
100092.290974249
100092.290974218
100092.290974193
100092.290974173
100092.290974157
100092.290974144
100092.290974132
100092.290974122
100092.290974112
100092.290974104
100092.290974096
100092.290974089
100092.290974082
100092.290974075
100092.290974069
100092.290974063
100092.290974058
100092.290974052
100092.290974048
100092.290974043
100092.290974039
100092.290974036
100092.290974033
100092.29097403
100092.290974028
100092.290974027
100092.290974026
100092.290974026
100092.290974028
100092.29097403
100092.290974035
100092.290974041
100092.290974051
100092.290974065
100092.290974084
100092.290974111
100092.290974147
100092.290974192
100092.29097425
100092.290974315
100092.290974387
100092.290974441
100092.290974482
100092.28869452
100092.288694489
100092.288694446
100092.288694386
100092.288694329
100092.288694275
100092.28869423
100092.288694193
100092.288694162
100092.288694138
100092.288694118
100092.288694102
100092.288694088
100092.288694076
100092.288694066
100092.288694057
100092.288694048
100092.28869404
100092.288694033
100092.288694026
100092.28869402
100092.288694013
100092.288694008
100092.288694002
100092.288693997
100092.288693992
100092.288693988
100092.288693984
100092.288693981
100092.288693978
100092.288693975
100092.288693973
100092.288693972
100092.288693971
100092.288693972
100092.288693973
100092.288693976
100092.288693981
100092.288693988
100092.288693998
100092.288694012
100092.288694031
100092.288694057
100092.28869409
100092.288694132
100092.288694183
100092.288694239
100092.288694299
100092.288694344
100092.288694375
100092.286414421
100092.286414397
100092.286414362
100092.286414312
100092.286414263
100092.286414215
100092.286414174
100092.286414139
100092.28641411
100092.286414087
100092.286414067
100092.286414051
100092.286414037
100092.286414025
100092.286414015
100092.286414006
100092.286413997
100092.286413989
100092.286413982
100092.286413975
100092.286413969
100092.286413963
100092.286413957
100092.286413952
100092.286413947
100092.286413942
100092.286413938
100092.286413934
100092.28641393
100092.286413927
100092.286413925
100092.286413923
100092.286413922
100092.286413922
100092.286413922
100092.286413924
100092.286413927
100092.286413932
100092.286413939
100092.286413949
100092.286413963
100092.286413981
100092.286414005
100092.286414037
100092.286414074
100092.28641412
100092.286414167
100092.286414218
100092.286414254
100092.286414279
100092.284134332
100092.284134314
100092.284134285
100092.284134243
100092.284134201
100092.284134159
100092.284134122
100092.284134089
100092.284134062
100092.284134039
100092.28413402
100092.284134004
100092.284133991
100092.284133979
100092.284133969
100092.284133959
100092.284133951
100092.284133943
100092.284133936
100092.284133929
100092.284133923
100092.284133917
100092.284133911
100092.284133906
100092.284133901
100092.284133897
100092.284133892
100092.284133889
100092.284133885
100092.284133882
100092.28413388
100092.284133878
100092.284133877
100092.284133876
100092.284133877
100092.284133879
100092.284133882
100092.284133887
100092.284133894
100092.284133904
100092.284133917
100092.284133935
100092.284133958
100092.284133986
100092.28413402
100092.28413406
100092.284134101
100092.284134143
100092.284134173
100092.284134193
100092.281854252
100092.281854237
100092.281854213
100092.281854179
100092.281854142
100092.281854105
100092.281854072
100092.281854042
100092.281854017
100092.281853995
100092.281853977
100092.281853962
100092.281853948
100092.281853937
100092.281853926
100092.281853917
100092.281853909
100092.281853901
100092.281853894
100092.281853888
100092.281853881
100092.281853875
100092.28185387
100092.281853865
100092.28185386
100092.281853855
100092.281853851
100092.281853848
100092.281853844
100092.281853841
100092.281853839
100092.281853837
100092.281853836
100092.281853836
100092.281853836
100092.281853838
100092.281853841
100092.281853846
100092.281853853
100092.281853862
100092.281853875
100092.281853892
100092.281853913
100092.281853939
100092.281853969
100092.281854004
100092.281854039
100092.281854074
100092.281854099
100092.281854115
100092.279574179
100092.279574167
100092.279574148
100092.279574118
100092.279574087
100092.279574055
100092.279574025
100092.279573998
100092.279573975
100092.279573954
100092.279573937
100092.279573922
100092.279573909
100092.279573898
100092.279573888
100092.279573879
100092.279573871
100092.279573863
100092.279573856
100092.27957385
100092.279573844
100092.279573838
100092.279573832
100092.279573827
100092.279573823
100092.279573818
100092.279573814
100092.27957381
100092.279573807
100092.279573804
100092.279573802
100092.2795738
100092.279573799
100092.279573798
100092.279573799
100092.279573801
100092.279573804
100092.279573808
100092.279573815
100092.279573824
100092.279573836
100092.279573852
100092.279573871
100092.279573894
100092.279573921
100092.279573951
100092.279573981
100092.27957401
100092.279574031
100092.279574044
100092.277294112
100092.277294103
100092.277294086
100092.277294062
100092.277294035
100092.277294007
100092.277293981
100092.277293956
100092.277293935
100092.277293916
100092.277293899
100092.277293885
100092.277293873
100092.277293862
100092.277293852
100092.277293843
100092.277293835
100092.277293828
100092.277293821
100092.277293815
100092.277293809
100092.277293803
100092.277293798
100092.277293793
100092.277293788
100092.277293784
100092.27729378
100092.277293776
100092.277293773
100092.27729377
100092.277293768
100092.277293766
100092.277293765
100092.277293764
100092.277293765
100092.277293766
100092.277293769
100092.277293773
100092.27729378
100092.277293788
100092.277293799
100092.277293814
100092.277293831
100092.277293852
100092.277293876
100092.277293902
100092.277293927
100092.277293951
100092.277293968
100092.277293979
100092.27501405
100092.275014043
100092.275014029
100092.275014009
100092.275013986
100092.275013962
100092.275013938
100092.275013916
100092.275013897
100092.275013879
100092.275013864
100092.27501385
100092.275013839
100092.275013828
100092.275013819
100092.27501381
100092.275013803
100092.275013796
100092.275013789
100092.275013783
100092.275013777
100092.275013772
100092.275013766
100092.275013762
100092.275013757
100092.275013753
100092.275013749
100092.275013745
100092.275013742
100092.275013739
100092.275013737
100092.275013735
100092.275013733
100092.275013733
100092.275013733
100092.275013734
100092.275013737
100092.275013741
100092.275013747
100092.275013755
100092.275013765
100092.275013778
100092.275013793
100092.275013812
100092.275013833
100092.275013855
100092.275013876
100092.275013896
100092.27501391
100092.275013918
100092.272733992
100092.272733986
100092.272733975
100092.272733958
100092.272733939
100092.272733918
100092.272733898
100092.272733878
100092.27273386
100092.272733844
100092.27273383
100092.272733817
100092.272733806
100092.272733796
100092.272733788
100092.272733779
100092.272733772
100092.272733765
100092.272733759
100092.272733753
100092.272733747
100092.272733742
100092.272733737
100092.272733732
100092.272733728
100092.272733723
100092.27273372
100092.272733716
100092.272733713
100092.27273371
100092.272733707
100092.272733705
100092.272733704
100092.272733703
100092.272733704
100092.272733705
100092.272733707
100092.27273371
100092.272733716
100092.272733723
100092.272733732
100092.272733743
100092.272733757
100092.272733773
100092.272733791
100092.27273381
100092.272733828
100092.272733844
100092.272733856
100092.272733862
100092.270453937
100092.270453933
100092.270453924
100092.27045391
100092.270453894
100092.270453876
100092.270453858
100092.270453841
100092.270453825
100092.270453811
100092.270453798
100092.270453786
100092.270453776
100092.270453766
100092.270453758
100092.27045375
100092.270453743
100092.270453737
100092.27045373
100092.270453725
100092.270453719
100092.270453714
100092.270453709
100092.270453704
100092.2704537
100092.270453696
100092.270453692
100092.270453688
100092.270453685
100092.270453682
100092.27045368
100092.270453678
100092.270453676
100092.270453676
100092.270453675
100092.270453676
100092.270453678
100092.270453681
100092.270453686
100092.270453692
100092.2704537
100092.27045371
100092.270453722
100092.270453736
100092.270453752
100092.270453767
100092.270453782
100092.270453796
100092.270453805
100092.270453809
100092.268173885
100092.268173882
100092.268173875
100092.268173864
100092.268173851
100092.268173836
100092.26817382
100092.268173805
100092.268173791
100092.268173778
100092.268173766
100092.268173755
100092.268173746
100092.268173737
100092.268173729
100092.268173722
100092.268173715
100092.268173709
100092.268173703
100092.268173698
100092.268173693
100092.268173688
100092.268173683
100092.268173678
100092.268173674
100092.26817367
100092.268173666
100092.268173662
100092.268173659
100092.268173656
100092.268173654
100092.268173652
100092.26817365
100092.268173649
100092.268173649
100092.268173649
100092.268173651
100092.268173653
100092.268173657
100092.268173662
100092.268173669
100092.268173678
100092.268173689
100092.2681737
100092.268173713
100092.268173726
100092.268173738
100092.268173749
100092.268173756
100092.268173759
100092.265893836
100092.265893834
100092.265893829
100092.26589382
100092.265893809
100092.265893796
100092.265893783
100092.26589377
100092.265893758
100092.265893746
100092.265893736
100092.265893726
100092.265893717
100092.265893709
100092.265893702
100092.265893695
100092.265893689
100092.265893683
100092.265893677
100092.265893672
100092.265893667
100092.265893662
100092.265893658
100092.265893653
100092.265893649
100092.265893645
100092.265893641
100092.265893638
100092.265893634
100092.265893631
100092.265893629
100092.265893627
100092.265893625
100092.265893624
100092.265893623
100092.265893623
100092.265893624
100092.265893626
100092.265893629
100092.265893634
100092.26589364
100092.265893647
100092.265893656
100092.265893666
100092.265893676
100092.265893687
100092.265893696
100092.265893704
100092.26589371
100092.265893712
100092.263613788
100092.263613787
100092.263613783
100092.263613777
100092.263613768
100092.263613758
100092.263613747
100092.263613736
100092.263613725
100092.263613715
100092.263613706
100092.263613697
100092.263613689
100092.263613682
100092.263613675
100092.263613669
100092.263613663
100092.263613658
100092.263613652
100092.263613647
100092.263613643
100092.263613638
100092.263613633
100092.263613629
100092.263613625
100092.263613621
100092.263613617
100092.263613614
100092.263613611
100092.263613608
100092.263613605
100092.263613603
100092.263613601
100092.263613599
100092.263613598
100092.263613598
100092.263613599
100092.2636136
100092.263613602
100092.263613606
100092.263613611
100092.263613617
100092.263613624
100092.263613632
100092.26361364
100092.263613648
100092.263613655
100092.263613661
100092.263613665
100092.263613666
100092.261333742
100092.261333742
100092.26133374
100092.261333735
100092.261333729
100092.261333721
100092.261333712
100092.261333703
100092.261333694
100092.261333685
100092.261333677
100092.261333669
100092.261333662
100092.261333656
100092.26133365
100092.261333644
100092.261333638
100092.261333633
100092.261333628
100092.261333624
100092.261333619
100092.261333615
100092.26133361
100092.261333606
100092.261333602
100092.261333598
100092.261333594
100092.261333591
100092.261333588
100092.261333585
100092.261333582
100092.261333579
100092.261333577
100092.261333575
100092.261333574
100092.261333574
100092.261333574
100092.261333574
100092.261333576
100092.261333579
100092.261333582
100092.261333587
100092.261333592
100092.261333598
100092.261333605
100092.261333611
100092.261333616
100092.26133362
100092.261333622
100092.261333622
100092.259053697
100092.259053698
100092.259053697
100092.259053695
100092.25905369
100092.259053684
100092.259053677
100092.25905367
100092.259053663
100092.259053656
100092.259053649
100092.259053642
100092.259053636
100092.25905363
100092.259053625
100092.259053619
100092.259053614
100092.25905361
100092.259053605
100092.2590536
100092.259053596
100092.259053592
100092.259053588
100092.259053584
100092.25905358
100092.259053576
100092.259053572
100092.259053569
100092.259053565
100092.259053562
100092.259053559
100092.259053557
100092.259053554
100092.259053552
100092.259053551
100092.25905355
100092.259053549
100092.25905355
100092.25905355
100092.259053552
100092.259053554
100092.259053558
100092.259053562
100092.259053566
100092.25905357
100092.259053574
100092.259053578
100092.25905358
100092.25905358
100092.259053579
100092.256773653
100092.256773655
100092.256773656
100092.256773655
100092.256773653
100092.256773649
100092.256773644
100092.256773638
100092.256773632
100092.256773627
100092.256773621
100092.256773615
100092.25677361
100092.256773605
100092.2567736
100092.256773595
100092.256773591
100092.256773586
100092.256773582
100092.256773578
100092.256773574
100092.25677357
100092.256773566
100092.256773562
100092.256773558
100092.256773554
100092.256773551
100092.256773547
100092.256773544
100092.256773541
100092.256773538
100092.256773535
100092.256773532
100092.25677353
100092.256773528
100092.256773527
100092.256773526
100092.256773525
100092.256773525
100092.256773526
100092.256773527
100092.256773529
100092.256773531
100092.256773534
100092.256773537
100092.256773539
100092.25677354
100092.25677354
100092.256773539
100092.256773537
100092.254493611
100092.254493614
100092.254493616
100092.254493617
100092.254493616
100092.254493614
100092.254493611
100092.254493607
100092.254493603
100092.254493598
100092.254493594
100092.254493589
100092.254493585
100092.25449358
100092.254493576
100092.254493572
100092.254493568
100092.254493564
100092.25449356
100092.254493556
100092.254493552
100092.254493548
100092.254493545
100092.254493541
100092.254493537
100092.254493533
100092.25449353
100092.254493526
100092.254493523
100092.25449352
100092.254493516
100092.254493513
100092.254493511
100092.254493508
100092.254493506
100092.254493504
100092.254493502
100092.254493501
100092.254493501
100092.2544935
100092.2544935
100092.254493501
100092.254493502
100092.254493503
100092.254493504
100092.254493504
100092.254493504
100092.254493502
100092.2544935
100092.254493497
100092.252213569
100092.252213573
100092.252213576
100092.252213579
100092.25221358
100092.25221358
100092.252213578
100092.252213576
100092.252213573
100092.25221357
100092.252213567
100092.252213563
100092.25221356
100092.252213556
100092.252213553
100092.252213549
100092.252213546
100092.252213542
100092.252213538
100092.252213535
100092.252213531
100092.252213528
100092.252213524
100092.25221352
100092.252213517
100092.252213513
100092.252213509
100092.252213506
100092.252213502
100092.252213499
100092.252213496
100092.252213493
100092.25221349
100092.252213487
100092.252213484
100092.252213482
100092.25221348
100092.252213478
100092.252213476
100092.252213475
100092.252213474
100092.252213474
100092.252213473
100092.252213472
100092.252213472
100092.25221347
100092.252213468
100092.252213464
100092.252213461
100092.252213457
100092.249933527
100092.249933533
100092.249933537
100092.249933542
100092.249933545
100092.249933547
100092.249933547
100092.249933546
100092.249933545
100092.249933543
100092.249933541
100092.249933538
100092.249933536
100092.249933533
100092.24993353
100092.249933527
100092.249933524
100092.249933521
100092.249933517
100092.249933514
100092.249933511
100092.249933507
100092.249933504
100092.2499335
100092.249933497
100092.249933493
100092.249933489
100092.249933486
100092.249933482
100092.249933479
100092.249933476
100092.249933472
100092.249933469
100092.249933466
100092.249933463
100092.24993346
100092.249933457
100092.249933455
100092.249933453
100092.24993345
100092.249933448
100092.249933447
100092.249933445
100092.249933442
100092.24993344
100092.249933437
100092.249933433
100092.249933428
100092.249933423
100092.249933417
100092.247653487
100092.247653493
100092.2476535
100092.247653506
100092.247653511
100092.247653514
100092.247653516
100092.247653517
100092.247653517
100092.247653516
100092.247653515
100092.247653514
100092.247653512
100092.24765351
100092.247653507
100092.247653505
100092.247653502
100092.247653499
100092.247653497
100092.247653494
100092.24765349
100092.247653487
100092.247653484
100092.24765348
100092.247653477
100092.247653473
100092.24765347
100092.247653466
100092.247653463
100092.247653459
100092.247653456
100092.247653452
100092.247653449
100092.247653445
100092.247653442
100092.247653439
100092.247653435
100092.247653432
100092.247653429
100092.247653426
100092.247653423
100092.24765342
100092.247653417
100092.247653413
100092.247653409
100092.247653404
100092.247653399
100092.247653391
100092.247653385
100092.247653378
100092.245373446
100092.245373454
100092.245373462
100092.245373471
100092.245373477
100092.245373482
100092.245373486
100092.245373488
100092.245373489
100092.24537349
100092.24537349
100092.245373489
100092.245373488
100092.245373487
100092.245373485
100092.245373483
100092.245373481
100092.245373479
100092.245373476
100092.245373474
100092.245373471
100092.245373468
100092.245373464
100092.245373461
100092.245373458
100092.245373454
100092.245373451
100092.245373447
100092.245373444
100092.24537344
100092.245373436
100092.245373433
100092.245373429
100092.245373425
100092.245373421
100092.245373418
100092.245373414