/*--------------------------------*- C++ -*----------------------------------*\
  =========                 |
  \\      /  F ield         | OpenFOAM: The Open Source CFD Toolbox
   \\    /   O peration     | Website:  https://openfoam.org
    \\  /    A nd           | Version:  10
     \\/     M anipulation  |
\*---------------------------------------------------------------------------*/
FoamFile
{
    format      ascii;
    class       volScalarField;
    location    "6";
    object      p_rgh;
}
// * * * * * * * * * * * * * * * * * * * * * * * * * * * * * * * * * * * * * //

dimensions      [1 -1 -2 0 0 0 0];

internalField   nonuniform List<scalar> 
2500
(
92.4362000894616
92.4362039690022
92.4362100765429
92.4362144200568
92.4362169902161
92.4362184523052
92.4362192489934
92.436219674928
92.4362198945746
92.4362200034957
92.4362200554897
92.4362200781179
92.4362200859905
92.4362200865726
92.4362200834003
92.4362200782925
92.4362200719916
92.4362200652395
92.4362200583273
92.4362200513278
92.4362200444593
92.4362200378091
92.4362200314354
92.4362200253672
92.4362200197065
92.4362200144678
92.436220009622
92.4362200051837
92.4362200011965
92.4362199975876
92.436219994328
92.4362199913448
92.4362199885509
92.4362199857715
92.436219982701
92.4362199788739
92.4362199732568
92.4362199641037
92.4362199473981
92.436219915995
92.4362198551244
92.4362197367882
92.4362195085705
92.4362190761894
92.4362182767218
92.4362168185035
92.4362142500177
92.4362098819693
92.4362037125829
92.436199926975
92.4365818930673
92.4365964463359
92.4366123039363
92.4366232085304
92.4366297546803
92.4366335117375
92.4366355894017
92.4366367034818
92.4366372764198
92.4366375581594
92.4366376902035
92.4366377481929
92.436637770923
92.4366377774568
92.4366377765546
92.4366377722472
92.4366377662955
92.4366377596452
92.4366377527331
92.4366377457773
92.4366377389088
92.4366377322731
92.4366377259139
92.4366377198749
92.4366377142142
92.4366377089609
92.4366377041151
92.4366376996768
92.436637695675
92.4366376920661
92.4366376888065
92.4366376858088
92.4366376829421
92.4366376799881
92.4366376765538
92.4366376717226
92.4366376635153
92.4366376476828
92.4366376149846
92.4366375461977
92.4366374021629
92.4366371074721
92.4366365228052
92.4366354024532
92.4366333295038
92.43662959004
92.4366230508458
92.4366120761988
92.4365960352297
92.4365818193328
92.4369707112928
92.4369944089121
92.4370162276464
92.4370307286445
92.437039338387
92.437044242979
92.4370469437999
92.437048386666
92.4370491266309
92.437049489512
92.4370496589981
92.4370497334021
92.4370497630298
92.4370497722703
92.4370497723576
92.4370497683994
92.4370497625787
92.4370497559867
92.4370497490745
92.4370497421187
92.4370497352793
92.4370497286582
92.4370497223135
92.437049716289
92.4370497106283
92.4370497053751
92.4370497005293
92.4370496961055
92.4370496921038
92.4370496884803
92.4370496852207
92.437049682223
92.4370496793272
92.4370496763004
92.4370496727352
92.437049667511
92.4370496581978
92.4370496395422
92.4370495997427
92.4370495140902
92.437049331973
92.4370489554567
92.4370482032245
92.4370467542758
92.4370440596103
92.4370391723642
92.4370305550983
92.4370159225364
92.4369937686861
92.4369702522381
92.4373138604715
92.4373410541302
92.4373629521724
92.4373769072699
92.4373849255935
92.4373893599404
92.4373917402263
92.4373929858702
92.4373936144111
92.4373939186771
92.4373940591613
92.4373941200029
92.4373941435624
92.4373941501835
92.4373941491795
92.4373941447557
92.4373941387748
92.4373941320955
92.4373941251833
92.437394118213
92.4373941114027
92.4373941047816
92.437394098466
92.4373940924415
92.4373940867954
92.4373940815422
92.4373940767109
92.4373940722871
92.4373940682854
92.4373940646619
92.4373940614169
92.4373940584483
92.4373940555961
92.4373940526857
92.4373940493533
92.4373940446822
92.4373940367223
92.4373940210935
92.4373939881625
92.4373939173529
92.4373937659693
92.4373934500327
92.4373928105051
92.4373915577016
92.4373891778669
92.4373847473908
92.4373766961653
92.4373625609878
92.437340217788
92.4373128286679
92.437581938284
92.4376070504077
92.4376253207738
92.4376364793279
92.437642671488
92.437645990678
92.4376477255282
92.437648615014
92.4376490570721
92.4376492685114
92.4376493650052
92.437649405867
92.4376494207245
92.4376494236349
92.4376494210883
92.4376494160242
92.4376494097814
92.4376494030003
92.437649396059
92.4376493890886
92.4376493822638
92.4376493756863
92.4376493693708
92.4376493634045
92.4376493577583
92.4376493525342
92.4376493477175
92.4376493432937
92.437649339292
92.4376493356831
92.437649332438
92.4376493295131
92.4376493267482
92.4376493239979
92.4376493210148
92.4376493171148
92.4376493109303
92.4376492994634
92.4376492760493
92.4376492265001
92.4376491210132
92.4376489002898
92.4376484492823
92.4376475528261
92.4376458144834
92.4376424893708
92.4376362511102
92.4376249006018
92.4376061465155
92.4375805104501
92.4377702225029
92.4377899860992
92.4378032194363
92.4378109645768
92.4378151120909
92.4378172647266
92.4378183591616
92.4378189086128
92.4378191774304
92.4378193041775
92.4378193609009
92.437819383762
92.4378193906741
92.4378193901357
92.4378193861048
92.4378193803859
92.4378193738667
92.4378193669836
92.4378193599841
92.4378193530283
92.4378193462326
92.4378193396697
92.4378193333832
92.4378193274315
92.437819321829
92.4378193166194
92.4378193118173
92.4378193074226
92.4378193034354
92.4378192998556
92.4378192966396
92.4378192937584
92.4378192910954
92.4378192885342
92.4378192859149
92.4378192827862
92.4378192782606
92.4378192705335
92.4378192556032
92.4378192249569
92.4378191605356
92.4378190262505
92.4378187502152
92.4378181946522
92.4378170954296
92.4378149337426
92.4378107420926
92.4378028283245
92.4377891511976
92.4377687161323
92.4378905989724
92.4379042868677
92.4379128166329
92.4379175922077
92.4379200543917
92.4379212869244
92.4379218936956
92.4379221902636
92.437922332072
92.4379223969736
92.4379224245349
92.43792243395
92.4379224347795
92.4379224314762
92.4379224261647
92.4379224198638
92.437922413068
92.437922406054
92.4379223990109
92.4379223920696
92.4379223852739
92.43792237874
92.4379223724827
92.4379223665746
92.4379223610013
92.4379223558353
92.4379223510477
92.4379223466822
92.4379223427095
92.4379223391734
92.4379223360011
92.437922333178
92.437922330646
92.4379223282886
92.437922326033
92.4379223235883
92.4379223204742
92.4379223157011
92.4379223071737
92.4379222904245
92.4379222558928
92.4379221843847
92.4379220364208
92.4379217345413
92.437921123128
92.43791988249
92.4379173866473
92.4379124840925
92.4379036016035
92.4378892709938
92.4379613634665
92.4379698778503
92.437974846951
92.4379774923291
92.4379787959624
92.4379794173583
92.4379797087022
92.4379798440932
92.437979905284
92.437979930648
92.4379799391754
92.4379799395101
92.4379799360031
92.4379799305898
92.4379799242452
92.4379799174058
92.437979910319
92.4379799031885
92.4379798960872
92.4379798891168
92.4379798823647
92.4379798758455
92.4379798696318
92.4379798637528
92.4379798582231
92.4379798530863
92.4379798483424
92.4379798440204
92.4379798400914
92.4379798365844
92.4379798334703
92.4379798307345
92.4379798283335
92.4379798262235
92.4379798243172
92.4379798224982
92.4379798205337
92.4379798180016
92.4379798139707
92.4379798065202
92.4379797913571
92.4379797598376
92.4379796930152
92.4379795527493
92.4379792571854
92.4379786297504
92.4379773041001
92.4379745744081
92.4379693570954
92.4379603308917
92.437999928341
92.4380047497398
92.4380073884531
92.4380087034515
92.4380093097861
92.4380095736415
92.4380096841924
92.4380097277026
92.4380097426183
92.4380097447574
92.4380097416288
92.4380097360845
92.4380097295361
92.4380097225221
92.4380097152898
92.4380097079556
92.4380097006069
92.438009693331
92.4380096861714
92.4380096792011
92.438009672449
92.4380096659588
92.4380096597888
92.4380096539389
92.4380096484674
92.4380096433742
92.438009638674
92.4380096343812
92.4380096305104
92.438009627047
92.4380096239911
92.4380096213717
92.4380096191162
92.438009617239
92.4380096156819
92.4380096144596
92.4380096134701
92.4380096126406
92.4380096117529
92.4380096103414
92.4380096069654
92.438009598889
92.43800957856
92.4380095303495
92.438009415855
92.4380091475614
92.4380085281591
92.4380071626656
92.4380043665151
92.4379991892783
92.4380195360718
92.4380220418825
92.4380233194534
92.4380238917947
92.4380241221515
92.4380241980398
92.4380242148618
92.4380242104962
92.4380242007028
92.4380241898325
92.4380241797626
92.4380241703911
92.4380241616891
92.4380241534236
92.4380241454201
92.4380241376493
92.4380241300241
92.4380241226027
92.4380241153849
92.4380241084
92.4380241016624
92.438024095216
92.438024089075
92.4380240832834
92.4380240778264
92.4380240727769
92.4380240681348
92.4380240638857
92.4380240600731
92.4380240566825
92.4380240537139
92.4380240511819
92.4380240490864
92.438024047442
92.4380240462488
92.4380240455648
92.4380240454193
92.4380240459577
92.4380240473547
92.4380240498285
92.4380240535393
92.4380240585451
92.4380240630417
92.4380240628088
92.4380240421306
92.4380239627353
92.4380237248697
92.4380231247342
92.4380217557773
92.4380190280499
92.438028874356
92.4380300723424
92.4380306278181
92.4380308252876
92.4380308728287
92.4380308596737
92.4380308324762
92.4380308051332
92.4380307828542
92.4380307649262
92.4380307506362
92.4380307387328
92.43803072843
92.4380307191313
92.4380307105021
92.4380307023093
92.4380306944659
92.4380306869134
92.4380306796083
92.4380306726089
92.4380306658859
92.4380306594685
92.4380306533712
92.4380306476232
92.438030642239
92.4380306372477
92.4380306326493
92.4380306284584
92.4380306246894
92.4380306213716
92.4380306184758
92.4380306160747
92.4380306141538
92.4380306127423
92.4380306118837
92.4380306116946
92.4380306123057
92.4380306139501
92.4380306170351
92.4380306221574
92.4380306301464
92.4380306423409
92.4380306594103
92.4380306822277
92.4380307056126
92.4380307156971
92.4380306636594
92.4380304519
92.4380298473407
92.4380285229709
92.4380330411368
92.4380335640308
92.4380337687035
92.43803379561
92.4380337641633
92.4380337140319
92.4380336687173
92.4380336314352
92.4380336032191
92.438033581464
92.438033564642
92.4380335509777
92.4380335394671
92.4380335293536
92.4380335201713
92.4380335116148
92.438033503553
92.4380334958696
92.4380334885354
92.4380334815069
92.438033474813
92.4380334684392
92.4380334623856
92.4380334566958
92.4380334513698
92.4380334464222
92.438033441882
92.4380334377493
92.4380334340385
92.4380334307789
92.4380334279849
92.4380334256857
92.4380334239104
92.4380334227317
92.4380334222078
92.4380334224843
92.4380334237503
92.4380334263114
92.438033430677
92.4380334376619
92.4380334483139
92.4380334643938
92.4380334875023
92.4380335203605
92.4380335619353
92.4380336091999
92.4380336376926
92.4380336038594
92.4380333745939
92.4380327852559
92.4380347691185
92.4380349711719
92.4380350201536
92.4380349793064
92.4380349196144
92.4380348577251
92.4380348067934
92.4380347661063
92.4380347353581
92.4380347116385
92.4380346932303
92.4380346783873
92.4380346659746
92.4380346552061
92.4380346455728
92.4380346367252
92.4380346284743
92.4380346207035
92.4380346133257
92.4380346062972
92.4380345996178
92.4380345932877
92.4380345873069
92.4380345816753
92.438034576393
92.4380345715181
92.4380345670215
92.438034562947
92.438034559309
92.4380345561076
92.4380345534009
92.4380345512182
92.4380345496029
92.4380345486279
92.4380345483951
92.4380345490645
92.4380345508835
92.4380345542013
92.4380345595855
92.4380345678655
92.4380345801619
92.4380345983227
92.438034624065
92.4380346604303
92.4380347077386
92.4380347669212
92.4380348244304
92.4380348621053
92.4380348017148
92.4380345672689
92.4380354154709
92.4380354772147
92.4380354645546
92.4380354031455
92.4380353378801
92.4380352754233
92.438035224608
92.4380351836589
92.4380351522414
92.4380351276486
92.4380351083382
92.4380350926949
92.4380350796418
92.4380350683932
92.4380350583961
92.4380350493448
92.4380350409483
92.4380350331048
92.4380350257125
92.4380350186984
92.4380350120628
92.4380350057763
92.4380349998537
92.4380349942803
92.4380349890707
92.4380349842395
92.4380349798157
92.4380349757994
92.4380349722051
92.4380349690909
92.4380349664571
92.4380349643761
92.4380349628918
92.4380349620915
92.4380349621206
92.4380349631101
92.4380349653948
92.4380349693092
92.4380349754356
92.4380349846033
92.4380349979183
92.4380350170541
92.4380350435822
92.4380350803112
92.4380351276341
92.4380351875006
92.4380352510198
92.4380353111483
92.4380353191373
92.4380352428561
92.4380356105248
92.4380356167239
92.4380355841276
92.4380355217145
92.4380354598979
92.4380354014138
92.4380353531742
92.4380353135493
92.4380352824519
92.4380352576991
92.4380352379958
92.4380352218868
92.4380352084117
92.4380351968139
92.4380351865839
92.438035177358
92.4380351688742
92.4380351609871
92.4380351535947
92.4380351466243
92.4380351400323
92.4380351338041
92.4380351279397
92.438035122439
92.4380351173022
92.4380351125292
92.4380351081636
92.4380351042055
92.4380351006694
92.4380350976135
92.4380350950669
92.4380350930587
92.4380350916908
92.4380350910651
92.4380350912834
92.4380350925785
92.4380350952124
92.438035099578
92.4380351062282
92.4380351159634
92.4380351297732
92.4380351492
92.4380351754953
92.4380352110165
92.438035255851
92.4380353118904
92.4380353722081
92.4380354342429
92.4380354654568
92.4380354535533
92.4380356300535
92.4380356174079
92.4380355817993
92.4380355253525
92.4380354699679
92.4380354169698
92.4380353722663
92.4380353347369
92.4380353045999
92.4380352801672
92.4380352604203
92.4380352441367
92.4380352304579
92.4380352186708
92.4380352082953
92.4380351989821
92.4380351904547
92.4380351825675
92.4380351752043
92.4380351682776
92.4380351617583
92.4380351556028
92.4380351498112
92.4380351443833
92.4380351393047
92.4380351346044
92.4380351302971
92.4380351263826
92.4380351229192
92.438035119907
92.4380351174186
92.4380351154978
92.4380351142318
92.4380351137079
92.4380351141008
92.4380351155996
92.4380351184809
92.4380351231521
92.4380351301224
92.4380351401487
92.438035154104
92.4380351732834
92.4380351987493
92.4380352322914
92.4380352736916
92.4380353243323
92.438035378349
92.4380354348541
92.4380354706955
92.4380354817404
92.4380355879402
92.43803557106
92.4380355383764
92.4380354896275
92.4380354411551
92.4380353938759
92.4380353530287
92.4380353179586
92.4380352891749
92.4380352654262
92.4380352459557
92.4380352297303
92.4380352160224
92.4380352041917
92.4380351937725
92.4380351844302
92.4380351759173
92.4380351680738
92.4380351607688
92.4380351539148
92.4380351474683
92.4380351414002
92.4380351356813
92.4380351303262
92.4380351253349
92.4380351207074
92.4380351164582
92.4380351126019
92.4380351091822
92.4380351062136
92.4380351037835
92.4380351019063
92.438035100713
92.4380351002765
92.4380351007858
92.4380351024156
92.4380351054569
92.4380351102882
92.4380351174041
92.438035127474
92.4380351412692
92.4380351598666
92.4380351840809
92.4380352152511
92.438035252897
92.4380352978915
92.4380353450542
92.4380353940505
92.4380354276655
92.4380354447349
92.4380355284957
92.4380355125177
92.4380354843888
92.4380354430468
92.4380354010791
92.4380353592569
92.4380353222514
92.4380352898006
92.4380352626467
92.4380352398439
92.4380352208682
92.4380352049193
92.4380351913424
92.4380351795844
92.4380351692234
92.4380351599393
92.4380351514992
92.4380351437285
92.4380351364962
92.4380351297441
92.4380351233849
92.4380351174186
92.4380351118016
92.4380351065192
92.4380351016007
92.4380350970459
92.4380350928404
92.4380350890424
92.4380350856663
92.438035082756
92.4380350803403
92.4380350785214
92.4380350773572
92.4380350769788
92.4380350775318
92.4380350792344
92.438035082334
92.4380350872088
92.4380350943102
92.43803510422
92.4380351176223
92.4380351353757
92.4380351580767
92.4380351867148
92.4380352206208
92.4380352601584
92.4380353008455
92.438035342464
92.4380353717861
92.4380353886954
92.4380354677123
92.4380354540917
92.4380354304303
92.4380353956512
92.4380353594897
92.4380353227025
92.4380352894077
92.4380352596345
92.4380352342123
92.4380352125736
92.4380351943109
92.4380351788132
92.4380351655127
92.4380351539439
92.4380351437285
92.4380351345753
92.4380351262516
92.4380351185973
92.4380351114814
92.4380351048458
92.438035098603
92.438035092724
92.4380350872088
92.4380350820284
92.4380350771826
92.438035072686
92.4380350685533
92.4380350647989
92.4380350614665
92.4380350585707
92.4380350561987
92.4380350543797
92.4380350532447
92.4380350528809
92.4380350534339
92.4380350551364
92.4380350582069
92.438035063009
92.4380350699503
92.4380350795254
92.4380350923166
92.4380351090222
92.4380351300933
92.4380351561413
92.4380351863801
92.4380352209118
92.4380352557928
92.4380352907756
92.4380353156303
92.4380353304005
92.4380354106106
92.4380353994493
92.4380353797751
92.4380353505985
92.4380353195302
92.4380352873268
92.438035257539
92.4380352304433
92.4380352068692
92.4380351865111
92.4380351691216
92.4380351541913
92.4380351412983
92.4380351300206
92.438035120038
92.438035111074
92.4380351029104
92.4380350954016
92.4380350884458
92.4380350819265
92.4380350758147
92.4380350700667
92.4380350646534
92.4380350595748
92.4380350548163
92.4380350503779
92.4380350463034
92.4380350426072
92.4380350392894
92.4380350364227
92.4380350340507
92.4380350322463
92.4380350310821
92.4380350306892
92.4380350312131
92.4380350328429
92.4380350358115
92.4380350404244
92.4380350470747
92.4380350561842
92.4380350682331
92.4380350837746
92.438035103085
92.4380351265572
92.4380351533619
92.4380351833097
92.4380352130684
92.4380352423177
92.4380352630687
92.4380352753651
92.4380353582528
92.4380353492597
92.4380353329761
92.4380353085871
92.4380352819571
92.4380352538865
92.4380352273874
92.438035202882
92.4380351812142
92.4380351622385
92.438035145824
92.4380351316067
92.4380351192231
92.4380351083382
92.4380350986467
92.4380350899301
92.4380350819847
92.4380350746796
92.4380350678839
92.4380350615247
92.4380350555584
92.4380350499414
92.4380350446445
92.4380350396532
92.438035034982
92.438035030631
92.4380350266001
92.438035022933
92.4380350196589
92.4380350167921
92.4380350144202
92.4380350125866
92.4380350113788
92.4380350109277
92.4380350113643
92.4380350128631
92.4380350156571
92.4380350200081
92.4380350262509
92.4380350347637
92.4380350459542
92.4380350602005
92.438035077721
92.4380350986758
92.4380351222499
92.4380351481086
92.4380351733707
92.4380351977306
92.4380352148873
92.4380352248554
92.4380353103625
92.4380353032029
92.4380352898297
92.4380352694861
92.438035246756
92.4380352224107
92.4380351989821
92.4380351769942
92.4380351572327
92.4380351397122
92.4380351243744
92.438035110943
92.4380350991705
92.4380350887368
92.4380350794236
92.4380350710126
92.4380350633292
92.4380350562424
92.4380350496504
92.4380350434658
92.4380350376596
92.4380350321735
92.4380350270076
92.4380350221181
92.4380350175343
92.438035013256
92.4380350092833
92.4380350056599
92.4380350023857
92.4380349995336
92.4380349971325
92.4380349952553
92.4380349939893
92.4380349934363
92.4380349937419
92.4380349950516
92.4380349975982
92.4380350015999
92.4380350073625
92.4380350151914
92.4380350254069
92.4380350383144
92.4380350540159
92.4380350725551
92.4380350931169
92.4380351152649
92.438035136598
92.4380351567524
92.438035170795
92.4380351787258
92.4380352662847
92.4380352607113
92.4380352497828
92.4380352329317
92.4380352136504
92.4380351926666
92.4380351721047
92.4380351525178
92.4380351346626
92.4380351186264
92.4380351044238
92.43803509188
92.4380350807623
92.4380350708816
92.4380350619904
92.4380350539286
92.4380350465362
92.4380350397114
92.4380350333377
92.4380350273568
92.4380350217252
92.4380350163847
92.4380350113497
92.4380350065767
92.4380350020947
92.4380349978746
92.4380349939602
92.4380349903513
92.4380349870917
92.4380349842249
92.4380349817802
92.4380349798594
92.4380349784915
92.4380349778075
92.4380349779385
92.4380349790299
92.4380349812564
92.4380349848507
92.4380349900457
92.4380349971034
92.4380350062856
92.4380350178108
92.4380350317224
92.4380350479332
92.4380350657011
92.4380350845167
92.4380351023719
92.4380351189175
92.4380351302971
92.4380351364671
92.4380352254375
92.4380352211883
92.438035212399
92.4380351985892
92.4380351823638
92.4380351644359
92.4380351465225
92.4380351292493
92.4380351132713
92.438035098734
92.43803508571
92.4380350740976
92.4380350637221
92.4380350544234
92.4380350460124
92.4380350383435
92.4380350313004
92.438035024752
92.4380350186257
92.4380350128631
92.4380350074061
92.4380350022402
92.4380349973362
92.4380349926796
92.4380349882849
92.4380349841376
92.4380349802668
92.438034976687
92.438034973442
92.4380349705461
92.4380349680578
92.4380349660496
92.4380349645653
92.4380349637358
92.4380349636485
92.4380349644634
92.4380349663261
92.4380349694402
92.4380349740095
92.4380349802377
92.4380349883431
92.4380349984713
92.438035010593
92.438035024592
92.4380350397696
92.4380350555584
92.4380350703577
92.43803508376
92.4380350928113
92.4380350974534
92.4380351872096
92.4380351841537
92.4380351772561
92.4380351661093
92.4380351526343
92.4380351374857
92.4380351220752
92.4380351069995
92.4380350928404
92.4380350798019
92.4380350680003
92.4380350573483
92.4380350477732
92.4380350391002
92.4380350312131
92.4380350239808
92.4380350172869
92.4380350110587
92.4380350051943
92.4380349996645
92.4380349944113
92.43803498942
92.4380349846469
92.4380349801213
92.4380349758139
92.4380349717394
92.4380349679122
92.4380349643616
92.4380349611019
92.438034958177
92.4380349556304
92.4380349535204
92.4380349519051
92.4380349508865
92.4380349505664
92.4380349510611
92.4380349525163
92.4380349551066
92.4380349589919
92.4380349643616
92.4380349713465
92.4380349800631
92.4380349904532
92.438035002313
92.438035015075
92.4380350281281
92.4380350401916
92.4380350508436
92.4380350578431
92.4380350611318
92.4380351511645
92.4380351491709
92.4380351439613
92.4380351352302
92.4380351242289
92.4380351116415
92.4380350985593
92.438035085579
92.4380350732099
92.4380350616702
92.438035051091
92.4380350414431
92.4380350326828
92.4380350246938
92.4380350173597
92.438035010593
92.438035004292
92.4380349983985
92.4380349928251
92.4380349875282
92.4380349824933
92.438034977662
92.4380349730636
92.4380349686398
92.4380349644343
92.4380349604326
92.4380349566491
92.4380349531129
92.4380349498533
92.4380349468847
92.4380349442508
92.4380349420244
92.4380349402636
92.4380349390267
92.4380349384301
92.4380349385901
92.4380349395942
92.4380349416169
92.4380349447893
92.4380349492421
92.4380349551066
92.4380349624116
92.4380349710991
92.4380349809508
92.4380349914427
92.4380350019783
92.4380350115825
92.4380350197753
92.4380350249703
92.4380350270512
92.4380351169093
92.4380351159198
92.4380351122527
92.4380351057189
92.4380350970023
92.4380350867868
92.438035075902
92.4380350649153
92.4380350542779
92.4380350442079
92.4380350348656
92.4380350262509
92.4380350183346
92.4380350110441
92.438035004292
92.4380349980202
92.4380349921412
92.4380349865969
92.4380349813291
92.4380349762941
92.4380349714629
92.4380349668354
92.438034962368
92.4380349580897
92.4380349539715
92.4380349500425
92.4380349463027
92.4380349427811
92.4380349394924
92.4380349364656
92.4380349337589
92.4380349314015
92.4380349294661
92.4380349279963
92.4380349271087
92.4380349268904
92.4380349274288
92.4380349288404
92.4380349312705
92.4380349348066
92.4380349395069
92.4380349454295
92.4380349524581
92.4380349603889
92.4380349687417
92.4380349769635
92.4380349843268
92.4380349902931
92.4380349938292
92.4380349948042
92.4380350841238
92.4380350840947
92.4380350818974
92.4380350774009
92.4380350707943
92.4380350628053
92.4380350540014
92.438035044921
92.438035035957
92.4380350273423
92.4380350192223
92.4380350116407
92.4380350045976
92.4380349980202
92.4380349918938
92.4380349861312
92.4380349806888
92.4380349755083
92.4380349705461
92.4380349657877
92.4380349611893
92.4380349567509
92.4380349524436
92.4380349482817
92.4380349442654
92.4380349404091
92.4380349367129
92.4380349331914
92.4380349298735
92.4380349268031
92.4380349239946
92.4380349214916
92.4380349193671
92.4380349176499
92.4380349164421
92.4380349158164
92.43803491586
92.4380349166604
92.4380349183048
92.438034920895
92.4380349244602
92.438034929015
92.4380349344428
92.4380349404964
92.4380349468411
92.4380349529092
92.4380349581916
92.438034962106
92.4380349641287
92.438034964056
92.4380350525607
92.4380350535066
92.4380350527063
92.4380350501306
92.4380350455176
92.4380350396241
92.4380350327701
92.4380350255378
92.4380350181891
92.438035011015
92.4380350041029
92.438034997569
92.4380349913845
92.4380349855637
92.4380349800485
92.4380349748244
92.4380349698331
92.438034965031
92.4380349604035
92.4380349559069
92.4380349515559
92.4380349473067
92.4380349431594
92.4380349391286
92.4380349352141
92.438034931416
92.438034927749
92.4380349242419
92.438034920895
92.4380349177518
92.4380349148414
92.438034912193
92.4380349098501
92.4380349078856
92.4380349063431
92.4380349052954
92.4380349048151
92.4380349049752
92.4380349058338
92.4380349074781
92.4380349099083
92.4380349130952
92.438034916966
92.4380349212588
92.4380349256971
92.4380349297135
92.4380349330459
92.4380349350395
92.4380349356215
92.4380349345302
92.4380350220163
92.4380350239371
92.4380350245046
92.4380350238062
92.4380350210995
92.4380350171705
92.4380350122083
92.4380350067222
92.4380350009451
92.4380349951534
92.4380349894636
92.4380349839485
92.4380349786516
92.4380349735729
92.4380349687126
92.4380349640123
92.4380349594867
92.4380349550775
92.4380349507846
92.4380349465791
92.4380349424609
92.4380349384155
92.4380349344283
92.4380349305284
92.4380349267158
92.4380349229759
92.438034919338
92.4380349158309
92.4380349124549
92.4380349092389
92.4380349062121
92.4380349034036
92.4380349008425
92.4380348986015
92.4380348967097
92.4380348952254
92.4380348942068
92.438034893712
92.4380348937848
92.4380348944687
92.4380348957784
92.438034897641
92.4380348999985
92.4380349025741
92.4380349051935
92.4380349072744
92.4380349087587
92.4380349088897
92.4380349080748
92.4380349059793
92.4380349923158
92.4380349952698
92.4380349972052
92.4380349983549
92.4380349974672
92.4380349954445
92.4380349922722
92.4380349884741
92.4380349842249
92.4380349797866
92.4380349752755
92.4380349707935
92.4380349663843
92.4380349620478
92.4380349578278
92.438034953695
92.4380349496205
92.4380349456187
92.4380349416606
92.4380349377461
92.4380349338608
92.4380349300191
92.4380349262065
92.4380349224375
92.4380349187122
92.4380349150451
92.4380349114363
92.4380349079293
92.4380349045095
92.4380349012063
92.4380348980631
92.4380348950799
92.438034892315
92.438034889783
92.4380348875275
92.4380348855921
92.438034884035
92.4380348828709
92.4380348821578
92.4380348818959
92.438034882085
92.4380348826526
92.4380348835402
92.4380348844716
92.4380348853447
92.438034885563
92.4380348852574
92.4380348835548
92.4380348813866
92.4380348782433
92.4380349632993
92.4380349673593
92.4380349706917
92.4380349736894
92.438034974577
92.4380349744024
92.4380349729327
92.438034970779
92.4380349679996
92.4380349648709
92.438034961524
92.438034958046
92.4380349545099
92.4380349509447
92.4380349473649
92.4380349437706
92.4380349401763
92.438034936582
92.4380349329731
92.4380349293497
92.4380349257117
92.4380349220737
92.4380349184212
92.4380349147832
92.4380349111452
92.4380349075363
92.4380349039711
92.4380349004496
92.4380348969862
92.4380348936102
92.4380348903214
92.4380348871782
92.438034884166
92.4380348813429
92.4380348787236
92.438034876337
92.438034874227
92.438034872408
92.4380348708946
92.4380348697014
92.4380348687846
92.4380348681007
92.4380348675477
92.4380348669074
92.4380348660925
92.4380348645063
92.4380348624691
92.438034858933
92.4380348553677
92.4380348511186
92.4380349348066
92.438034940089
92.4380349448766
92.4380349497369
92.4380349523708
92.4380349539861
92.4380349541752
92.4380349535786
92.4380349522253
92.4380349503917
92.4380349481653
92.4380349456915
92.4380349430139
92.4380349401908
92.4380349372659
92.4380349342246
92.4380349311105
92.438034927909
92.4380349246494
92.438034921317
92.4380349179264
92.4380349144776
92.4380349109997
92.4380349074927
92.4380349039566
92.4380349004059
92.4380348968552
92.4380348933191
92.4380348898121
92.4380348863488
92.4380348829291
92.4380348795967
92.4380348763516
92.4380348732375
92.4380348702398
92.4380348674022
92.4380348647392
92.4380348622508
92.4380348599516
92.4380348578416
92.4380348558479
92.4380348539271
92.4380348520062
92.4380348498235
92.4380348473787
92.4380348440463
92.4380348402919
92.4380348349077
92.4380348299019
92.4380348244449
92.4380349067505
92.4380349134008
92.4380349197163
92.4380349264975
92.4380349308631
92.43803493421
92.4380349359999
92.4380349369167
92.4380349369312
92.4380349363346
92.4380349352286
92.4380349337152
92.4380349318963
92.4380349298008
92.4380349275161
92.4380349250278
92.4380349223793
92.4380349195853
92.4380349166604
92.438034913619
92.4380349104758
92.4380349072453
92.4380349039275
92.4380349005369
92.4380348970881
92.4380348935956
92.4380348900741
92.4380348865234
92.4380348829582
92.4380348794075
92.4380348758568
92.4380348723353
92.4380348688574
92.4380348654377
92.4380348620762
92.4380348587729
92.4380348555569
92.4380348524282
92.4380348493432
92.4380348463164
92.4380348432896
92.4380348401755
92.4380348369159
92.4380348332488
92.4380348292325
92.438034824183
92.438034818726
92.4380348114355
92.4380348049017
92.4380347981059
92.4380348790146
92.4380348872073
92.4380348951527
92.438034903942
92.4380349100247
92.4380349150597
92.4380349184066
92.4380349207495
92.4380349221028
92.4380349226994
92.4380349226558
92.4380349221028
92.4380349211133
92.4380349197454
92.4380349180865
92.4380349161365
92.4380349139683
92.4380349115672
92.438034908977
92.4380349062267
92.4380349033308
92.4380349002895
92.4380348971317
92.4380348938575
92.4380348905106
92.4380348870764
92.4380348835693
92.4380348800041
92.4380348763952
92.4380348727427
92.4380348690611
92.4380348653503
92.4380348616396
92.4380348578998
92.4380348541599
92.4380348504201