/*--------------------------------*- C++ -*----------------------------------*\
  =========                 |
  \\      /  F ield         | OpenFOAM: The Open Source CFD Toolbox
   \\    /   O peration     | Website:  https://openfoam.org
    \\  /    A nd           | Version:  10
     \\/     M anipulation  |
\*---------------------------------------------------------------------------*/
FoamFile
{
    format      ascii;
    class       surfaceScalarField;
    location    "6";
    object      phi;
}
// * * * * * * * * * * * * * * * * * * * * * * * * * * * * * * * * * * * * * //

dimensions      [1 0 -1 0 0 0 0];

internalField   nonuniform List<scalar> 
4900
(
-5.99381438968895e-12
6.07509656192049e-12
-8.01912541791329e-12
2.15383041786883e-12
-7.02991687071143e-12
-8.47185267212243e-13
-5.10517620612782e-12
-1.78366010434236e-12
-3.41885642060101e-12
-1.54709721380771e-12
-2.22373244181654e-12
-1.05701447545296e-12
-1.44293049543971e-12
-6.43796017918287e-13
-9.46271702399942e-13
-3.61047373632186e-13
-6.30212681152039e-13
-1.82006777841539e-13
-4.2610466290818e-13
-7.15750661261275e-14
-2.90661649847726e-13
-4.25092147393972e-15
-1.97766921531926e-13
3.71824820962373e-14
-1.31717133916004e-13
6.31273120474236e-14
-8.31043744016048e-14
7.98385489924166e-14
-4.62503380781501e-14
9.0999472372977e-14
-1.76391085665475e-14
9.87322946113836e-14
4.95551229828127e-15
1.0429769424992e-13
2.30395359917253e-14
1.08397997226392e-13
3.76624722482166e-14
1.11479452517575e-13
4.95893057326707e-14
1.13822980216738e-13
5.94123574303259e-14
1.15599884049584e-13
6.76057210410514e-14
1.16929273929364e-13
7.45676250081468e-14
1.17887645152976e-13
8.06350027324738e-14
1.1853710320223e-13
8.61297210421916e-14
1.18891882282585e-13
9.13418098657003e-14
1.18984112949009e-13
9.65676768677976e-14
1.18805691197649e-13
1.02111162359948e-13
1.1834918898755e-13
1.08304087631232e-13
1.1758431085566e-13
1.15524209803779e-13
1.1646500177892e-13
1.24221352752307e-13
1.14918493685399e-13
1.34968123614243e-13
1.12823416782081e-13
1.48495961691238e-13
1.10023377793684e-13
1.65827675506513e-13
1.06233846663925e-13
1.88464211012066e-13
1.00986345528146e-13
2.1865796352334e-13
9.35456782315641e-14
2.59934731703624e-13
8.26571897962719e-14
3.1798726653206e-13
6.61763969144959e-14
4.0221420845999e-13
4.04114145556701e-14
5.2830710698491e-13
-9.27596205081854e-16
7.22287584950757e-13
-6.8191919130968e-14
1.02729403686217e-12
-1.78529217756553e-13
1.51205327062209e-12
-3.5752662018773e-13
2.2814090731111e-12
-6.41149669521146e-13
3.46999774913334e-12
-1.0587276304815e-12
5.16536408672552e-12
-1.56228920467019e-12
7.12461169048419e-12
-1.82046613340763e-12
8.14442790547007e-12
-8.72529345481882e-13
6.07115964811229e-12
2.2247553864044e-12
6.17830116400726e-12
-8.56957677224062e-12
1.47625535881536e-11
-1.33769149494375e-11
7.13513542840881e-12
-1.23962326018064e-11
-1.64013523775475e-12
-9.43654882185797e-12
-4.55746912434571e-12
-6.58940062611729e-12
-4.21164359172223e-12
-4.4802445854629e-12
-2.98598526941935e-12
-3.04719782928168e-12
-1.89877403211616e-12
-2.10244928211279e-12
-1.12987043630098e-12
-1.47715883849597e-12
-6.33480445288301e-13
-1.05494816377717e-12
-3.21892366477496e-13
-7.60978852756639e-13
-1.27967059435305e-13
-5.49056355294449e-13
-5.82779056555005e-15
-3.90924638178132e-13
7.28307425318841e-14
-2.69243666342828e-13
1.25121084218979e-13
-1.73204291926087e-13
1.61199968893974e-13
-9.58808159217036e-14
1.87027132119301e-13
-3.26674962432282e-14
2.06148194905328e-13
1.96407635194078e-14
2.20648159295275e-13
6.33685634972757e-14
2.31841261109259e-13
1.00282879433636e-13
2.40563935998742e-13
1.31782907318679e-13
2.47352451913321e-13
1.59023675530742e-13
2.52572493707955e-13
1.8299186550226e-13
2.56468035002623e-13
2.04553565961148e-13
2.59224275502609e-13
2.24516074628375e-13
2.60912249407121e-13
2.43650008998225e-13
2.61601195063659e-13
2.62722321791835e-13
2.61284472691791e-13
2.82528391982791e-13
2.59925856904659e-13
3.0391816952184e-13
2.5743800712951e-13
3.27847644685222e-13
2.53669417722633e-13
3.55436454002725e-13
2.48381483730506e-13
3.88051901310458e-13
2.41208635885496e-13
4.27406560206949e-13
2.31652469442478e-13
4.75799490250116e-13
2.18850956876195e-13
5.3643858934717e-13
2.01440162809683e-13
6.13951071452835e-13
1.77287420436865e-13
7.15298524060335e-13
1.42826884996584e-13
8.51327266398524e-13
9.20575822245043e-14
1.0394017755541e-12
1.47870378305747e-14
1.3077919085963e-12
-1.06177683375906e-13
1.70263979655414e-12
-2.99080913911043e-13
2.29875685874529e-12
-6.0976066996111e-13
3.21302349461032e-12
-1.1058276645565e-12
4.61698076404301e-12
-1.87763156550051e-12
6.70713437185884e-12
-2.97876136125162e-12
9.5647665432745e-12
-4.24483833438212e-12
1.25832983685951e-11
-4.65568078252408e-12
1.36204151661543e-11
-1.71626585480315e-12
8.73545337020341e-12
7.3008826056011e-12
1.50395698912327e-11
-6.2592793552585e-12
2.11551335529549e-11
-1.1769220407848e-11
1.28333311544794e-11
-1.16940180510505e-11
-1.51784818752852e-12
-9.4532955597653e-12
-6.60455064878894e-12
-6.99198551286634e-12
-6.48439312832354e-12
-5.03933850138944e-12
-4.75400507174465e-12
-3.63247454880552e-12
-3.12410632404389e-12
-2.65209416247015e-12
-1.93136226284694e-12
-1.96622627767131e-12
-1.14275387975408e-12
-1.47687656749093e-12
-6.3658914396652e-13
-1.11800010478196e-12
-3.13777994560842e-13
-8.46950616496054e-13
-1.05083610675547e-13
-6.36495212245431e-13
3.31545076940922e-14
-4.69117712771347e-13
1.27699570564397e-13
-3.33337172633377e-13
1.94687285895281e-13
-2.21425228303426e-13
2.43786131842604e-13
-1.27988172448167e-13
2.80846995989986e-13
-4.91293906628412e-14
3.09435214380852e-13
1.8090301097064e-14
3.31812870598935e-13
7.59637425476197e-14
3.49459588991715e-13
1.26355692814278e-13
3.63339450229064e-13
1.70825677260972e-13
3.74124281761702e-13
2.10734336188175e-13
3.82257054467834e-13
2.47296946230067e-13
3.88069276420575e-13
2.81648205412152e-13
3.91712326480011e-13
3.14879481939155e-13
3.93297578678207e-13
3.48080493529051e-13
3.92819069396566e-13
3.8237118384792e-13
3.9020949750488e-13
4.18951404212105e-13
3.85298814075278e-13
4.59152221953019e-13
3.77805091032463e-13
5.04513559645046e-13
3.6727927455304e-13
5.56864793623022e-13
3.53069608330528e-13
6.18461271354379e-13
3.34254409008579e-13
6.9221959674025e-13
3.09320431405959e-13
7.82044579719841e-13
2.75928339754407e-13
8.93346327335045e-13
2.30461804480537e-13
1.03388782610329e-12
1.67026110849272e-13
1.21517445387254e-12
7.59068264140907e-14
1.45474876265827e-12
-5.91040359757367e-14
1.77987491271937e-12
-2.64911113069443e-13
2.23323438900367e-12
-5.85177622798238e-13
2.88102386028385e-12
-1.08924853997226e-12
3.82205730847517e-12
-1.87725783306203e-12
5.19126489699558e-12
-3.0753357739668e-12
7.1169459516013e-12
-4.72967497600819e-12
9.58197027298734e-12
-6.52925347304079e-12
1.18795545443431e-11
-6.76342599330572e-12
1.20261627012565e-11
-1.66339277420597e-12
6.45868278637933e-12
1.30618985027259e-11
2.162167309512e-11
-3.13747606885177e-12
2.44369822510258e-11
-7.46279675568279e-12
1.73552751324293e-11
-8.29981308395732e-12
-4.79531629811081e-13
-7.37844962652655e-12
-7.33060914461175e-12
-5.95359191536203e-12
-7.72071906533942e-12
-4.64506728294954e-12
-5.87923625996936e-12
-3.59402832961331e-12
-3.99573600234325e-12
-2.79088748968189e-12
-2.55808863107255e-12
-2.18209497034266e-12
-1.57750530708197e-12
-1.71671805142719e-12
-9.2981247056794e-13
-1.35545656153494e-12
-5.04374341431364e-13
-1.07001683067961e-12
-2.21028864047819e-13
-8.40545791476073e-13
-2.7753394059319e-14
-6.53120841332065e-13
1.08079095639342e-13
-4.97891025424965e-13
2.06621250975412e-13
-3.67759447540409e-13
2.80257891482335e-13
-2.57490032619986e-13
3.36675031488073e-13
-1.63128929405107e-13
3.80705888793047e-13
-8.15935548511757e-14
4.15476450951194e-13
-1.04105601799687e-14
4.43073879210594e-13
5.24679822065808e-14
4.64886671570472e-13
1.08788098671482e-13
4.81890620255721e-13
1.60080757913421e-13
4.94743080440957e-13
2.07740614837109e-13
5.03913142969511e-13
2.53063033068069e-13
5.09650196234666e-13
2.97307791978176e-13
5.12102250956638e-13
3.41728297892592e-13
5.11266212980112e-13
3.87611605831661e-13
5.07041743389308e-13
4.36335037892876e-13
4.99165588483224e-13
4.89407632092176e-13
4.87224597570232e-13
5.48558776927618e-13
4.70548109787733e-13
6.15802367733312e-13
4.48202247139303e-13
6.93589018286842e-13
4.18832428944983e-13
7.84984348334331e-13
3.80318340504807e-13
8.93938556842749e-13
3.29449560739972e-13
1.02568412369593e-12
2.6134641991203e-13
1.1873238084594e-12
1.68268913958547e-13
1.38870586228163e-12
3.77856039079068e-14
1.64373983048637e-12
-1.50347033921146e-13
1.97226700507025e-12
-4.28944493555695e-13
2.40261835556857e-12
-8.50143372095916e-13
2.97426045220373e-12
-1.49438592999064e-12
3.73885592831405e-12
-2.47388226882573e-12
4.75225563610861e-12
-3.9186096955377e-12
6.03119356367076e-12
-5.83490904558156e-12
7.45130758205021e-12
-7.76950915911254e-12
8.41477516619037e-12
-7.53759642703741e-12
7.65115864496183e-12
-7.01566338261444e-13
3.30561058052764e-12
1.75970852932452e-11
2.50455911528836e-11
-7.34325211571413e-13
2.53192639451278e-11
-3.29161953375957e-12
2.01063617892694e-11
-4.69336888742233e-12
1.11492054226715e-12
-4.93346269767204e-12
-6.90548267754276e-12
-4.52983304270144e-12
-7.94709243084748e-12
-3.90584745675518e-12
-6.33193860955279e-12
-3.26764352399846e-12
-4.46691604699321e-12
-2.69706261421017e-12
-2.96471603963944e-12
-2.21350762329547e-12
-1.8993871096553e-12
-1.81234257144339e-12
-1.17103410913058e-12
-1.48178044165194e-12
-6.76322612935846e-13
-1.20905774159725e-12
-3.36175566925543e-13
-9.82861457470514e-13
-9.72026506344774e-14
-7.93860736237771e-13
7.51406121431479e-14
-6.34619484720747e-13
2.02855708475707e-13
-4.99290952163118e-13
2.99884942988431e-13
-3.83278071430756e-13
3.75144047324752e-13
-2.82930982727531e-13
4.34402173307173e-13
-1.95309342286933e-13
4.81490083103839e-13
-1.17982662871665e-13
5.1900352664567e-13
-4.89135619996881e-14
5.48723050206432e-13
1.36736410472081e-14
5.71888810678859e-13
7.13392202272776e-14
5.89372765322774e-13
1.25529671765197e-13
6.01759312556725e-13
1.7758045718288e-13
6.09407296844709e-13
2.2880173074688e-13
6.1249041702723e-13
2.8048890173266e-13
6.11018388674455e-13
3.3398026050512e-13
6.04847328011586e-13
3.90693704615148e-13
5.93632199863196e-13
4.52177044614181e-13
5.76829962454535e-13
5.20179101547865e-13
5.53567864044858e-13
5.96712246600126e-13
5.22651039387317e-13
6.84185374515018e-13
4.82330267413348e-13
7.8551754242011e-13
4.29983996375459e-13
9.04331428770284e-13
3.61708344128606e-13
1.04520186203084e-12
2.71690635991794e-13
1.2139458210096e-12
1.50970062629694e-13
1.41795041201561e-12
-1.44265190909808e-14
1.66648044826997e-12
-2.46593580134454e-13
1.9707666336138e-12
-5.80282433806918e-13
2.34350006366258e-12
-1.06905848840346e-12
2.79645524185655e-12
-1.79239124594312e-12
3.33454709560678e-12
-2.8555036607382e-12
3.93955459350746e-12
-4.36493126156108e-12
4.53433200916063e-12
-6.26745894461429e-12
4.92548974432141e-12
-7.99254841900667e-12
4.70926000021775e-12
-7.14439043120693e-12
3.37068283424225e-12
8.21482502505468e-13
8.28799590829944e-13
2.03131255867447e-11
2.59793647536517e-11
6.49122260994886e-13
2.48136634878414e-11
-4.37699771071359e-13
2.13733718375504e-11
-2.02461349176344e-12
2.8765023597606e-12
-2.97187672904743e-12
-5.79229557794233e-12
-3.27376274356424e-12
-7.48744826619413e-12
-3.16282412019857e-12
-6.29130858901447e-12
-2.85985777907024e-12
-4.62260708392961e-12
-2.49534425142786e-12
-3.18490570956072e-12
-2.13524959828991e-12
-2.11724197755858e-12
-1.80713391102513e-12
-1.35843515568495e-12
-1.51969111486574e-12
-8.24202733229425e-13
-1.27247484431383e-12
-4.4472817711368e-13
-1.06140387696972e-12
-1.70337182010901e-13
-8.81338121840938e-13
3.23997103309539e-14
-7.27258496993373e-13
1.85566855157115e-13
-5.94721079806147e-13
3.03657931444583e-13
-4.79942506695319e-13
3.96233576586876e-13
-3.79752029870821e-13
4.69668526986624e-13
-2.91501520411863e-13
5.28312025086222e-13
-2.12935304520021e-13
5.75152892862895e-13
-1.42126638730832e-13
6.12299900568e-13
-7.73744866949953e-14
6.412217065354e-13
-1.71627969270101e-14
6.62973431280395e-13
3.99147722552753e-14
6.7825138776133e-13
9.51733496465811e-14
6.87504685634222e-13
1.49898342228169e-13
6.90935559532008e-13
2.05361498659407e-13
6.88566251473439e-13
2.62871442802599e-13
6.80216132958336e-13
3.23809496176322e-13
6.6546428167524e-13
3.8968140140709e-13
6.43643508838318e-13
4.62153431985784e-13
6.13719996989877e-13
5.43130577477835e-13
5.7426143387425e-13
6.34835598145207e-13
5.23203228981516e-13
7.39890656229559e-13
4.57530996884548e-13
8.61423064000692e-13
3.72845181057973e-13
1.00316760975426e-12
2.62741343519016e-13
1.16951132609017e-12
1.17626393555586e-13
1.36538681943925e-12
-7.69933432328346e-14
1.59581226252238e-12
-3.43269983802779e-13
1.8647092938654e-12
-7.14824313071146e-13
2.17231961833894e-12
-1.24149958768567e-12
2.50969454393678e-12
-1.99350579482794e-12
2.84902142627811e-12
-3.05708205609721e-12
3.12442987968664e-12
-4.50046119810703e-12
3.20804075379771e-12
-6.20792510233949e-12
2.88829276306134e-12
-7.52437580016576e-12
1.94944128723649e-12
-6.04924552345844e-12
4.09843395091338e-13
2.52353079273528e-12
-6.34245491476751e-13
2.15082875798826e-11
2.54337096843011e-11
1.2395269272195e-12
2.37017681293224e-11
1.02226352287368e-12
2.1742689252754e-11
-4.82490832423757e-13
4.52384904828671e-12
-1.7003999263159e-12
-4.44042712389926e-12
-2.35986054814574e-12
-6.70160043770999e-12
-2.55152315407905e-12
-5.97897830830059e-12
-2.47209455354335e-12
-4.58526010873818e-12
-2.26076561175883e-12
-3.28203807027232e-12
-2.00246612972939e-12
-2.26309794360755e-12
-1.74118014491096e-12
-1.50853004704222e-12
-1.49765867910783e-12
-9.57476844555108e-13
-1.27957880548455e-12
-5.53308827475332e-13
-1.08811098437511e-12
-2.52927302687787e-13
-9.21456777226016e-13
-2.59144144242131e-14
-7.76697857558774e-13
1.48667019622308e-13
-6.50712186495235e-13
2.85090218869873e-13
-5.40554979685526e-13
3.93083194041308e-13
-4.4359447128388e-13
4.79330579316144e-13
-3.57528729120547e-13
5.48508764111767e-13
-2.80343693402313e-13
6.03895479733952e-13
-2.10270616610479e-13
6.47845223284645e-13
-1.45731810068472e-13
6.82019131879887e-13
-8.52929855380191e-14
7.07616132094705e-13
-2.76240870951178e-14
7.25437613489542e-13
2.85340309672736e-14
7.36001912575483e-13
8.44026456223411e-14
7.39549754303319e-13
1.41199462653986e-13
7.36104767053231e-13
2.00173214555516e-13
7.25455046293241e-13
2.626325194375e-13
7.07117657484303e-13
3.29992135806896e-13
6.80319110201267e-13
4.03794446779827e-13
6.43896934211047e-13
4.85782190392812e-13
5.96220003115413e-13
5.7793513704036e-13
5.34988012495708e-13
6.82518581801349e-13
4.56906884544065e-13
8.02106519565281e-13
3.57275277170849e-13
9.39581565698852e-13
2.29393906567166e-13
1.09798497158435e-12
6.35258667560707e-14
1.28012286939426e-12
-1.54566036924367e-13
1.48763734194175e-12
-4.45845579182748e-13
1.71913286284917e-12
-8.40862395595109e-13
1.96663429121488e-12
-1.38283505163775e-12
2.2089350372552e-12
-2.12867289129986e-12
2.40142362030866e-12
-3.14110856157477e-12
2.45854191871506e-12
-4.44725411027098e-12
2.24235682406207e-12
-5.87866285327087e-12
1.56293023585654e-12
-6.72749698781468e-12
3.44215846726971e-13
-4.70649733196233e-12
-1.12683067750651e-12
4.12314606443957e-12
-1.28368151759434e-12
2.17826938082665e-11
2.42153697741485e-11
1.35691011203264e-12
2.24485219972195e-11
1.49476318955469e-12
2.17204211205425e-11
2.07236919120191e-13
5.91593805879311e-12
-9.93407270646829e-13
-3.14294174948885e-12
-1.75746327138231e-12
-5.84711873306924e-12
-2.08766282948127e-12
-5.56318376496038e-12
-2.13726383087373e-12
-4.45330783342856e-12
-2.02935635118833e-12
-3.3096820630879e-12
-1.84843111529778e-12
-2.36513754252379e-12
-1.64305548827943e-12
-1.63599244344405e-12
-1.43932291637432e-12
-1.0840389478856e-12
-1.24948307375232e-12
-6.66586172118491e-13
-1.07816526607983e-12
-3.48207731889338e-13
-9.26038084476095e-13
-1.02475361199419e-13
-7.91892834638672e-13
8.96541086196877e-14
-6.73766840495093e-13
2.41691569872452e-13
-5.69497493049021e-13
3.63159787082522e-13
-4.76990878444473e-13
4.60810840774557e-13
-3.9430339192442e-13
5.39470971030988e-13
-3.19675870145896e-13
6.02603819751665e-13
-2.5151892261998e-13
6.52734585036136e-13
-1.883910596481e-13
6.91674265329785e-13
-1.28962363160885e-13
7.20732674880979e-13
-7.19898713706268e-14
7.40798911576271e-13
-1.6287360881671e-14
7.52447682481799e-13
3.92972333002637e-14
7.55953503580283e-13
9.5910313737508e-14
7.51343392059471e-13
1.54726477157931e-13
7.38377604424857e-13
2.16968959085474e-13
7.1652226840692e-13
2.83945657494854e-13
6.84919005289917e-13
3.57065949923306e-13
6.42302536689032e-13
4.37884510874459e-13
5.86898244342665e-13
5.28122838053139e-13
5.16239203899913e-13
6.29677422504664e-13
4.26861591405764e-13
7.44584156131218e-13
3.13929504360282e-13
8.74933714062269e-13
1.70698390786423e-13
1.02259103666628e-12
-1.23315231902543e-14
1.18864085434514e-12
-2.48601782879597e-13
1.37223816903558e-12
-5.5712742081671e-13
1.56849707599584e-12
-9.64388569172681e-13
1.76482559326936e-12
-1.50585685210753e-12
1.93458182338976e-12
-2.22432944137544e-12
2.02842439579612e-12
-3.15976122613236e-12
1.96093999680493e-12
-4.30308463974898e-12
1.6096797319499e-12
-5.44858742317902e-12
8.26686185779608e-13
-5.86230742138885e-12
-3.77720782391889e-13
-3.41466931692553e-12
-1.63921468892983e-12
5.47550435491226e-12
-1.43230833052769e-12
2.16566331961701e-11
2.28251823711502e-11
1.23963768417644e-12
2.12807384116776e-11
1.43652388135986e-12
2.15948336786559e-11
4.03535443068283e-13
7.00901135516035e-12
-6.42508640260709e-13
-2.04257158457574e-12
-1.37147607817117e-12
-5.06841515866119e-12
-1.74004771438302e-12
-5.1484006879578e-12
-1.8550391316338e-12
-4.29445860466401e-12
-1.8136073357702e-12
-3.30873131669026e-12
-1.68973568469414e-12
-2.44757854114719e-12
-1.52964020566293e-12
-1.75533580804518e-12
-1.36041220834957e-12
-1.21305699516237e-12
-1.19636796592891e-12
-7.90893704111178e-13
-1.04421844843925e-12
-4.61054762529021e-13
-9.06370496331131e-13
-2.01429164654115e-13
-7.82955046144708e-13
4.7442532421056e-15
-6.72985160685457e-13
1.6985669049277e-13
-5.74996536148822e-13
3.02953465572966e-13
-4.87387202040931e-13
4.10649658837411e-13
-4.08565181004301e-13
4.97782585026562e-13
-3.37025072342949e-13
5.67904970053545e-13
-2.71361381189287e-13
6.23642493289484e-13
-2.10271723936825e-13
6.66911057441467e-13
-1.5253462334059e-13
6.99101259688765e-13
-9.69977690823289e-14
7.21172369621201e-13
-4.25534221428017e-14
7.3374202575438e-13
1.18746847479569e-14
7.37116654112539e-13
6.73617283909004e-14
7.31322350910225e-13
1.25003818975962e-13
7.16098699352601e-13
1.85932885853588e-13
6.90873152860424e-13
2.51346772851894e-13
6.54721935232318e-13
3.22515296863673e-13
6.06305970885529e-13
4.0080445615268e-13
5.43756067813846e-13
4.87684736479937e-13
4.64500784872629e-13
5.84695589838424e-13
3.65010803979123e-13
6.93377774753625e-13
2.40451893288137e-13
8.15116652934749e-13
8.42417036418475e-14
9.50797218752861e-13
-1.12613017530364e-13
1.10016418372606e-12
-3.62404475558766e-13
1.26062781103131e-12
-6.8180309236802e-13
1.42521829390147e-12
-1.09289036833441e-12
1.57927410450853e-12
-1.62341666509416e-12
1.69516416191251e-12
-2.30316320099517e-12
1.72593668338718e-12
-3.15271465802879e-12
1.59673300238858e-12
-4.13504896237096e-12
1.21091590584838e-12
-5.02254323812284e-12
4.66166691977719e-13
-5.0750367451888e-12
-5.82312165596697e-13
-2.31986120778626e-12
-1.59153222181284e-12
6.53317896239101e-12
-1.3240639946814e-12
2.1429772961231e-11
2.15177541859321e-11
1.03035243884367e-12
2.02887947826286e-11
1.17164146726851e-12
2.14813079174118e-11
3.75354301957205e-13
7.82355761896684e-12
-4.79452440955903e-13
-1.17300033473696e-12
-1.11612323650194e-12
-4.41964333732062e-12
-1.47245421738759e-12
-4.78211677775926e-12
-1.61528478847016e-12
-4.14311859434353e-12
-1.6156612782466e-12
-3.30072579286971e-12
-1.53368885792579e-12
-2.52248225879534e-12
-1.41003512430472e-12
-1.87234019243965e-12
-1.2703650888114e-12
-1.34644929139462e-12
-1.1294682160101e-12
-9.25872929173008e-13
-9.95152202530639e-13
-5.89811221603853e-13
-8.70986693552427e-13
-3.20390273815592e-13
-7.58105597862504e-13
-1.0328162830634e-13
-6.56318519054897e-13
7.25859412083249e-14
-5.64766086337507e-13
2.15590911977942e-13
-4.82290554204722e-13
3.32053627173843e-13
-4.0762711378183e-13
4.26706125834034e-13
-3.39508359049899e-13
5.03101295028116e-13
-2.7671063712713e-13
5.63909174841267e-13
-2.18070711107067e-13
6.11108231687278e-13
-1.62477617784489e-13
6.46141122225391e-13
-1.08871341418211e-13
6.70018900362761e-13
-5.62253547739966e-14
6.83390946227997e-13
-3.53812769270181e-15
6.86589229617165e-13
5.01899815318646e-14
6.79640318178923e-13
1.05974113055561e-13
6.62266892284222e-13
1.64854623177633e-13
6.33870079901272e-13
2.2791827346648e-13
5.93480070417841e-13
2.96296128007046e-13
5.39711143141589e-13
3.71175207334801e-13
4.70639081356877e-13
4.53781389799792e-13
3.83654202563025e-13
5.45325599646724e-13
2.75243630990863e-13
6.46904891165683e-13
1.40688993008284e-13
7.59298589068637e-13
-2.62710558809535e-14
8.8260205479603e-13
-2.3394375995113e-13
1.01555215926845e-12
-4.93260818830332e-13
1.15440847964706e-12
-8.18414393901979e-13
1.29111992325863e-12
-1.22716879587336e-12
1.41058006232232e-12
-1.74020462306936e-12
1.4866586595685e-12
-2.37625240561372e-12
1.47809716342835e-12
-3.14074771873864e-12
1.32414474844083e-12
-3.97717074260147e-12
9.54386015446198e-13
-4.64817228555277e-12
3.0600732661576e-13
-4.42077757418748e-12
-5.48074019948243e-13
-1.45748672507206e-12
-1.31990289146157e-12
7.31461656454331e-12
-1.11124247938531e-12
2.12250040673838e-11
2.04014106578758e-11
8.05885663034652e-13
1.94880123849988e-11
8.75166377999837e-13
2.13985004728906e-11
2.74595400122138e-13
8.40357476448652e-12
-4.02409826870656e-13
-5.17451951786057e-13
-9.35158704367225e-13
-3.90898830330941e-12
-1.25825287579498e-12
-4.48186549810424e-12
-1.40835253635745e-12
-4.0164010782295e-12
-1.43458185966818e-12
-3.29818748059212e-12
-1.38347565567118e-12
-2.59747889885751e-12
-1.28919268757128e-12
-1.99070224644874e-12
-1.17480272258523e-12
-1.48514115563941e-12
-1.0546024967336e-12
-1.07063715243413e-12
-9.36806717417741e-13
-7.3246262504199e-13
-8.2569379466146e-13
-4.5666609535599e-13
-7.23121371327323e-13
-2.31329231275528e-13
-6.29524613056027e-13
-4.67953107304461e-14
-5.44548706805059e-13
1.04530301274698e-13
-4.67421911820906e-13
2.28555579251218e-13
-3.97177037435072e-13
3.2981954536994e-13
-3.32775157613479e-13
4.11806446644176e-13
-2.73164513057607e-13
4.77174566236527e-13
-2.17317339472327e-13
5.27928268263227e-13
-1.64234317389638e-13
5.65537934853404e-13
-1.12946132034941e-13
5.91045645239428e-13
-6.25126625367422e-14
6.05128864100065e-13
-1.20060832079125e-14
6.08132033823293e-13
3.94941027193524e-14
6.00086527264617e-13
9.29208576367352e-14
5.80703228000046e-13
1.49224043632803e-13
5.49364046422665e-13
2.09378426852053e-13
5.05074201614784e-13
2.74378438576716e-13
4.46427194152744e-13
3.45238512407284e-13
3.7147935062517e-13
4.22957344465283e-13
2.77635941014759e-13
5.08453047620705e-13
1.61466193958296e-13
6.02433773942092e-13
1.84621393645523e-14
7.05175637209782e-13
-1.57204873546959e-13
8.16153494336812e-13
-3.73043266782474e-13
9.33389558625653e-13
-6.38536025643202e-13
1.05245130485557e-12
-9.65429643000874e-13
1.16490595327594e-12
-1.36749476351195e-12
1.25618748287203e-12
-1.85928276618206e-12
1.30286699911716e-12
-2.45065854100854e-12
1.27036234334045e-12
-3.13591148848902e-12
1.11178552656975e-12
-3.84624429352545e-12
7.78782797242674e-13
-4.34283502007617e-12
2.38373323551607e-13
-3.90777022474902e-12
-4.34615718211772e-13
-8.10875750922305e-13
-1.00941378460672e-12
7.8631708795755e-12
-8.78271651017724e-13
2.10644044073101e-11
1.94981458385241e-11
6.03365440761258e-13
1.88615668810584e-11
6.19040425853311e-13
2.13362622601147e-11
1.695613096286e-13
8.80254862179927e-12
-3.60075595921466e-13
-3.69644449218805e-14
-7.970555112695e-13
-3.52009887778038e-12
-1.08083470378379e-12
-4.24575161313155e-12
-1.2273400596683e-12
-3.9173527297586e-12
-1.26899172518228e-12
-3.30384370588839e-12
-1.24059671389045e-12
-2.67310107296939e-12
-1.16998301218549e-12
-2.10855842802656e-12
-1.07719119072153e-12
-1.62528695134363e-12
-9.75465140340457e-13
-1.21990488688239e-12
-8.72950079502345e-13
-8.82758918817781e-13
-7.74277936348757e-13
-6.03387581636152e-13
-6.81787892946405e-13
-3.72149740962491e-13
-5.96384448365962e-13
-1.80811278201063e-13
-5.18121402263832e-13
-2.26207728440339e-14
-4.46557983371967e-13
1.07840126237733e-13
-3.80989775375679e-13
2.14850258559112e-13
-3.20586394795079e-13
3.01771108765652e-13
-2.64459486482977e-13
3.71203904840993e-13
-2.11712092480463e-13
4.25145963996968e-13
-1.61454926332118e-13
4.65075264509778e-13
-1.12814640733994e-13
4.92050192253195e-13
-6.4931411214101e-14
5.06760784198192e-13
-1.69594039160827e-14
5.09565351989916e-13
3.19443795287685e-14
5.00496545086965e-13
8.26287242893876e-14
4.79259043550267e-13
1.35950273091286e-13
4.45225764035406e-13
1.92775103914573e-13
3.97391498005361e-13
2.53968330515355e-13
3.34349870203285e-13
3.2037897676323e-13
2.54173668769492e-13
3.9279764320366e-13
1.54325893989136e-13
4.71884184465612e-13
3.15075381857702e-14
5.58013118797648e-13
-1.18505256066018e-13
6.51060270715222e-13
-3.01043401620259e-13
7.50036312755895e-13
-5.2275663780167e-13
8.52497679919503e-13
-7.91681608599122e-13
9.5367298647669e-13
-1.11725454058536e-12
1.0452364725149e-12
-1.50971061196136e-12
1.11372214093584e-12
-1.97848268053232e-12
1.1388430302597e-12
-2.52663435020714e-12
1.09249934611009e-12
-3.14067190597863e-12
9.39797093554846e-13
-3.74505678217906e-12
6.4918117235401e-13
-4.10433570530431e-12
2.08055023319358e-13
-3.51937550435899e-12
-3.15043982466145e-13
-3.40818936590838e-13
-7.3809732682595e-13
8.23249221287137e-12
-6.66761146328647e-13
2.09379608873113e-11
1.87920991140113e-11
4.37132711627232e-13
1.83787969962366e-11
4.21188523594407e-13
2.12804880750639e-11
8.37437191738213e-14
9.06721756305651e-12
-3.29813953808786e-13
3.07157765849489e-13
-6.85195315965277e-13
-3.23167935036296e-12
-9.30148546932474e-13
-4.06637579903892e-12
-1.06746552451091e-12
-3.84480323794327e-12
-1.1175507670471e-12
-3.31801674892581e-12
-1.10570598692595e-12
-2.74890898778124e-12
-1.0541033802988e-12
-2.22400744096576e-12
-9.79711816889368e-13
-1.76355172855487e-12
-8.94427465203198e-13
-1.36919250008089e-12
-8.0600249173773e-13
-1.03538334051191e-12
-7.19150130330051e-13
-7.54673241745644e-13
-6.36486650612099e-13
-5.19498239780697e-13
-5.59250912808805e-13
-3.22987381015193e-13
-4.8780944276617e-13
-1.59253744977889e-13
-4.21996977416549e-13
-2.34046950996911e-14
-3.61336504132896e-13
8.85305907198496e-14
-3.05184481309028e-13
1.79749780308827e-13
-2.52807482960121e-13
2.52765262785951e-13
-2.03433347234281e-13
3.09537377257901e-13
-1.5627963335363e-13
3.5153349432858e-13
-1.1056685111565e-13
3.79815470342667e-13
-6.55208251127983e-14
3.95077595271949e-13
-2.03752597878976e-14
3.97685865687666e-13
2.56333006137053e-14
3.87674167677884e-13
7.32690597731001e-14
3.6474627485904e-13
1.2329558046473e-13
3.28273995302068e-13
1.76470954289823e-13
2.77257697826943e-13
2.33535758545744e-13
2.10306980960321e-13
2.95187516873075e-13
1.25538581234918e-13
3.62032564421129e-13
2.0505114001237e-14
4.34502393644051e-13
-1.07916802443362e-13
5.12698575607268e-13
-2.63622842472835e-13
5.96192939870256e-13
-4.51416410326097e-13
6.83665895402293e-13
-6.77064650989551e-13
7.72415010515148e-13
-9.47233920654445e-13
8.5760674090814e-13
-1.2692522524941e-12
9.31343680483697e-13
-1.65032096172651e-12
9.81558899485817e-13
-2.09574027155795e-12
9.91126825306336e-13
-2.60355528913794e-12
9.37741662460388e-13
-3.15514384671861e-12
7.96203034253336e-13
-3.67214375988086e-12
5.46998151223587e-13
-3.92485960126983e-12
1.90286510926374e-13
-3.23379265582912e-12
-2.151216057958e-13
-8.10214178457016e-15
-5.26567093445209e-13
8.46936574542792e-12
-4.92755676948419e-13
2.08298517949215e-11
1.82492917154149e-11
3.08854539412487e-13
1.80093351052109e-11
2.77170032940996e-13
2.1225208052162e-11
2.1331154671437e-14
9.2375721352976e-12
-3.02480475554538e-13
5.50185779785389e-13
-5.90540875218324e-13
-3.02099232069449e-12
-7.99709800131574e-13
-3.93255467788843e-12
-9.25131063678571e-13
-3.79352187384604e-12
-9.78893976766283e-13
-3.33765454592083e-12
-9.78895056782552e-13
-2.82188125178434e-12
-9.4246985748964e-13
-2.3332102196259e-12
-8.83691110564742e-13
-1.89508221052757e-12
-8.12987984894256e-13
-1.51273770406999e-12
-7.3750307978811e-13
-1.18387437336416e-12
-6.61827519394909e-13
-9.03560695684238e-13
-5.88691760004366e-13
-6.66071327595822e-13
-5.19546469158532e-13
-4.65801186514715e-13
-4.54986808164896e-13
-2.97710015348061e-13
-3.95067043484532e-13
-1.57439395075943e-13
-3.39507334350339e-13
-4.13495016895041e-14
-2.87823324197729e-13
5.35555686772605e-14
-2.39425372465263e-13
1.29684299668486e-13
-1.93658640039806e-13
1.88932934929062e-13
-1.49847281697774e-13
2.32747619773386e-13
-1.0730027986798e-13
2.62175288609264e-13
-6.5332235580017e-14
2.77915326843677e-13
-2.32549833412454e-14
2.80330367469215e-13
1.96117816314324e-14
2.69460606111171e-13
6.39490378739572e-14
2.45009260749948e-13
1.1042944741747e-13
2.06354685610068e-13
1.59707737816316e-13
1.5251513129338e-13
2.12406764656492e-13
8.2130826871698e-14
2.69082259351134e-13
-6.61406266724682e-15
3.30179855640203e-13
-1.16057640156847e-13
3.95937469234515e-13
-2.49115729704151e-13
4.66245148581025e-13
-4.09337727606154e-13
5.40445239970691e-13
-6.0098307594636e-13
6.17018782287947e-13
-8.28966432899982e-13
6.93163199080275e-13
-1.0986865837588e-12
7.64190825938079e-13
-1.41561277173696e-12
8.22842179632327e-13
-1.78441135396815e-12
8.58569083765544e-13
-2.20714250357677e-12
8.57212948793856e-13
-2.67829654472937e-12
8.01406893152064e-13
-3.17610978405291e-12
6.73480080884354e-13