/*--------------------------------*- C++ -*----------------------------------*\
  =========                 |
  \\      /  F ield         | OpenFOAM: The Open Source CFD Toolbox
   \\    /   O peration     | Website:  https://openfoam.org
    \\  /    A nd           | Version:  10
     \\/     M anipulation  |
\*---------------------------------------------------------------------------*/
FoamFile
{
    format      ascii;
    class       volScalarField;
    location    "6";
    object      rho;
}
// * * * * * * * * * * * * * * * * * * * * * * * * * * * * * * * * * * * * * //

dimensions      [1 -3 0 0 0 0 0];

internalField   nonuniform List<scalar> 
2500
(
1.14449288688796
1.14452157810577
1.14457326955415
1.14460863543773
1.14462908353424
1.1446402217289
1.14464607964547
1.1446490552678
1.14465050529974
1.14465117675461
1.14465147801503
1.14465160650995
1.14465165922014
1.14465168235774
1.14465169333109
1.14465170017854
1.14465170339908
1.14465170652
1.14465170977468
1.14465171204077
1.14465171396563
1.14465171563111
1.1446517170022
1.14465171785088
1.14465171871955
1.14465171945877
1.1446517197336
1.1446517198456
1.14465171974224
1.14465171936285
1.14465171868478
1.14465171741574
1.14465171585237
1.14465171373029
1.1446517107253
1.14465170554046
1.14465169489815
1.14465167126553
1.14465161251492
1.14465147586717
1.1446511623429
1.14465046912608
1.14464899996773
1.14464601756962
1.14464018003557
1.1446291207952
1.14460874071728
1.14457321591703
1.14452106123116
1.14449334010026
1.14829918857434
1.14843536325159
1.14858454589471
1.14868536345591
1.14874542598762
1.14877940323342
1.14879800315901
1.14880782706547
1.14881279678599
1.14881519178223
1.14881629201364
1.14881677281092
1.1488169730898
1.14881705394134
1.14881708602904
1.14881709927719
1.1488171045877
1.14881710758152
1.14881710990635
1.14881711154678
1.14881711293911
1.14881711420574
1.14881711527881
1.14881711599642
1.14881711663462
1.14881711718675
1.14881711746017
1.1488171176293
1.14881711771078
1.14881711757438
1.14881711722305
1.14881711645535
1.14881711488713
1.14881711200036
1.14881710623823
1.14881709228559
1.14881705681107
1.14881696787686
1.14881675005217
1.14881624037648
1.14881509674144
1.14881264472511
1.14880762527529
1.14879779767926
1.14877929451529
1.14874553521711
1.14868559592135
1.14858416948878
1.14843332349897
1.14830049851125
1.15211077736955
1.15233552276309
1.15254286629675
1.152678851409
1.15275917758621
1.15280445650046
1.15282921535678
1.15284230313155
1.15284894037325
1.15285215187448
1.15285363218109
1.15285428148302
1.15285455269542
1.15285466130003
1.15285470330207
1.15285471930846
1.15285472523171
1.15285472780295
1.15285472932866
1.15285473033929
1.15285473120588
1.1528547320537
1.15285473280937
1.1528547333272
1.15285473374097
1.15285473410568
1.15285473431462
1.15285473447977
1.15285473463884
1.15285473468023
1.15285473461622
1.15285473423288
1.15285473281448
1.15285472974723
1.15285472296714
1.15285470524607
1.15285465855674
1.15285453966979
1.15285424822517
1.15285356521345
1.15285203451683
1.15284875909013
1.15284206659637
1.15282897755766
1.15280433082062
1.15275926938049
1.15267892967823
1.15254175020087
1.15233128836876
1.15210838202331
1.15541371045487
1.15567027442949
1.15587742337714
1.15600805130343
1.15608282784322
1.15612377770215
1.15614560556171
1.15615690354432
1.15616253776839
1.1561652282206
1.15616645505161
1.15616698844729
1.15616720950906
1.15616729717305
1.15616733056564
1.15616734286111
1.15616734718038
1.15616734881287
1.15616734961673
1.15616735011173
1.15616735055848
1.15616735105449
1.15616735153611
1.1561673518695
1.15616735210669
1.15616735231811
1.15616735245141
1.15616735257934
1.15616735273892
1.15616735283067
1.15616735290213
1.15616735291655
1.15616735200154
1.15616734971903
1.15616734474114
1.15616733122772
1.15616729474328
1.15616720032298
1.15616696603207
1.15616641013242
1.15616514864807
1.15616241239042
1.15615673446879
1.15614542496978
1.15612365507305
1.15608279499223
1.15600776592081
1.15587549949232
1.15566421528894
1.15540591584926
1.15794765760867
1.15818234051866
1.15835376588732
1.1584577145838
1.15851529503206
1.15854589003391
1.15856177737973
1.15856983152563
1.15857378608927
1.1585756533793
1.15857649801353
1.15857686313498
1.15857701377817
1.15857707320873
1.15857709563712
1.15857710369339
1.15857710637785
1.158577107262
1.15857710760714
1.15857710778265
1.15857710795364
1.15857710819733
1.15857710847247
1.15857710866441
1.15857710877979
1.1585771088827
1.15857710895484
1.15857710903907
1.15857710916224
1.15857710926071
1.15857710938404
1.15857710956676
1.15857710906585
1.1585771076404
1.15857710454817
1.15857709583374
1.15857707186334
1.1585770091076
1.15857685194801
1.15857647562279
1.15857561327157
1.15857372156799
1.15856974202106
1.15856167756435
1.15854581013599
1.15851521182021
1.15845725616207
1.15835157833723
1.15817570415679
1.15793625266264
1.15969649493176
1.15987932802763
1.16000250098255
1.16007445849345
1.16011306387026
1.16013298328795
1.16014306883996
1.16014808253668
1.16015051021864
1.16015164603009
1.16015215687394
1.1601523769845
1.16015246761716
1.16015250328743
1.1601525166632
1.16015252137023
1.16015252285131
1.1601525232719
1.16015252338917
1.16015252339999
1.16015252341431
1.16015252350302
1.16015252364282
1.16015252374081
1.16015252378343
1.16015252382231
1.16015252385552
1.16015252390392
1.16015252398439
1.1601525240658
1.16015252418603
1.16015252438808
1.16015252415888
1.16015252339
1.16015252169245
1.16015251668395
1.16015250269985
1.16015246579344
1.16015237274843
1.16015214850938
1.16015163098223
1.16015048560808
1.16014804800673
1.16014303073141
1.16013295179924
1.16011299833379
1.16007403701587
1.16000058328567
1.15987338352755
1.15968448809254
1.16079596051302
1.16092143167335
1.16100038872375
1.16104493237083
1.16106811695016
1.16107975082116
1.16108550118579
1.16108830767311
1.1610896497213
1.16109027289588
1.16109055210269
1.1610906722425
1.16109072170215
1.1610907411554
1.16109074841455
1.16109075092568
1.16109075166952
1.16109075181347
1.16109075180601
1.16109075179332
1.1610907517759
1.16109075178315
1.16109075184557
1.16109075188835
1.16109075189297
1.16109075190211
1.16109075191493
1.16109075193882
1.16109075198556
1.16109075204288
1.16109075213478
1.16109075229026
1.16109075221093
1.16109075185228
1.1610907510076
1.16109074837189
1.16109074092808
1.16109072118215
1.16109067117085
1.16109055014425
1.16109026947041
1.16108964414209
1.16108830044126
1.16108549593725
1.16107975154466
1.16106809017923
1.16104464499132
1.16099899634114
1.16091688837904
1.16078568645778
1.16143213220671
1.16150965209082
1.16155564677352
1.16158076266208
1.1615934689975
1.16159967991684
1.16160268052646
1.1616041197698
1.16160480022498
1.16160511423009
1.16160525457992
1.16160531497542
1.16160533986745
1.16160534966214
1.16160535330183
1.16160535454032
1.16160535486889
1.16160535489685
1.16160535487149
1.16160535484614
1.16160535483046
1.16160535482476
1.16160535484213
1.16160535485454
1.16160535484576
1.16160535484509
1.16160535484941
1.16160535486024
1.16160535488534
1.16160535492122
1.1616053549806
1.16160535507044
1.16160535506796
1.16160535493361
1.16160535453557
1.16160535324504
1.16160534956966
1.16160533979125
1.16160531495448
1.1616052547211
1.16160511464345
1.16160480109231
1.16160412203715
1.16160268705154
1.16159969395296
1.16159347120328
1.16158060724708
1.16155477545717
1.16150660244184
1.16142458087069
1.16177388000656
1.16181767200606
1.16184235426052
1.16185542854527
1.16186186953987
1.16186494142882
1.16186639368863
1.16186707885067
1.16186739939618
1.16186754654452
1.16186761222941
1.16186764052759
1.1618676522149
1.16186765681864
1.16186765852289
1.16186765909
1.16186765922309
1.16186765921918
1.16186765919519
1.16186765917353
1.16186765916258
1.1618676591573
1.16186765915706
1.16186765915476
1.16186765914733
1.16186765914405
1.16186765914515
1.16186765915067
1.16186765916346
1.16186765918395
1.16186765921815
1.1618676592666
1.1618676592802
1.16186765923709
1.16186765906667
1.1618676584735
1.16186765677122
1.16186765223491
1.16186764069751
1.16186761270631
1.16186754754823
1.16186740127569
1.16186708252292
1.16186640146715
1.16186495662314
1.16186188403252
1.16185536190657
1.16184187260044
1.16181583643258
1.16176895926885
1.16194558599586
1.16196847205248
1.16198080338817
1.16198715242861
1.16199020355492
1.1619916255495
1.16199228409511
1.16199258990871
1.16199273157169
1.16199279631149
1.16199282519655
1.16199283766499
1.1619928428286
1.16199284486544
1.16199284561665
1.16199284585965
1.1619928459093
1.161992845901
1.16199284588464
1.16199284587034
1.16199284586152
1.16199284585621
1.161992845854
1.16199284585101
1.16199284584618
1.16199284584343
1.16199284584369
1.16199284584653
1.16199284585277
1.16199284586363
1.16199284588164
1.16199284590608
1.16199284591638
1.16199284590605
1.16199284583965
1.16199284558186
1.16199284483617
1.16199284284689
1.16199283778746
1.16199282552664
1.16199279700532
1.16199273289768
1.1619925925373
1.16199228970501
1.16199163700028
1.16199021887774
1.16198713192768
1.16198056440035
1.16196746586211
1.16194268354941
1.16202678414247
1.16203795109907
1.16204373531781
1.16204663546038
1.16204799716329
1.1620486182145
1.16204890024454
1.1620490292281
1.16204908841587
1.16204911535767
1.16204912737978
1.16204913258228
1.16204913474364
1.16204913559751
1.16204913591126
1.1620491360093
1.16204913602624
1.1620491360204
1.16204913601102
1.1620491360029
1.16204913599741
1.16204913599392
1.16204913599197
1.16204913598975
1.1620491359871
1.16204913598547
1.16204913598557
1.16204913598699
1.16204913598995
1.16204913599534
1.16204913600417
1.16204913601579
1.1620491360214
1.1620491360202
1.16204913599624
1.16204913589019
1.16204913557929
1.16204913474886
1.16204913263926
1.16204912753955
1.16204911570185
1.16204908910028
1.16204903066421
1.16204890350655
1.16204862536462
1.16204800864112
1.16204663359263
1.16204362782313
1.1620374427347
1.1620252115059
1.1620631173492
1.16206824261775
1.16207080751624
1.16207206207328
1.1620726384464
1.16207289603999
1.16207301085316
1.16207306259157
1.16207308611754
1.16207309678795
1.16207310155193
1.16207310361951
1.16207310448142
1.16207310482243
1.1620731049473
1.16207310498502
1.16207310499024
1.16207310498683
1.16207310498202
1.16207310497788
1.16207310497495
1.16207310497302
1.16207310497179
1.16207310497051
1.16207310496922
1.16207310496843
1.1620731049685
1.1620731049692
1.16207310497058
1.16207310497313
1.16207310497721
1.16207310498248
1.16207310498545
1.16207310498601
1.16207310497766
1.16207310493616
1.16207310481214
1.1620731044803
1.16207310363906
1.16207310161275
1.16207309692511
1.16207308640769
1.16207306325738
1.16207301250958
1.1620728999732
1.1620726455987
1.16207206532897
1.16207076347688
1.1620680036352
1.16206232587149
1.16207856872302
1.1620807950469
1.16208187635938
1.16208239320324
1.1620826258619
1.16208272788067
1.16208277255141
1.16208279239535
1.16208280133874
1.16208280538151
1.16208280718794
1.16208280797439
1.1620828083034
1.16208280843376
1.16208280848131
1.16208280849521
1.16208280849663
1.16208280849489
1.16208280849265
1.16208280849071
1.16208280848931
1.16208280848836
1.16208280848772
1.1620828084871
1.16208280848654
1.16208280848623
1.16208280848629
1.16208280848664
1.16208280848729
1.16208280848846
1.16208280849027
1.16208280849256
1.16208280849405
1.16208280849465
1.16208280849188
1.16208280847631
1.16208280842879
1.16208280830129
1.16208280797898
1.16208280720603
1.16208280542583
1.16208280144271
1.16208279266829
1.16208277331368
1.16208272984734
1.16208262979495
1.16208239652523
1.1620818599422
1.16208068971369
1.16207819550219
1.16208483384864
1.16208575387236
1.16208618933304
1.16208639307109
1.16208648305069
1.16208652180764
1.16208653849451
1.16208654580532
1.16208654907166
1.16208655054344
1.1620865512017
1.1620865514892
1.16208655160991
1.16208655165779
1.16208655167517
1.16208655168005
1.16208655168039
1.16208655167965
1.16208655167868
1.16208655167785
1.16208655167724
1.16208655167684
1.16208655167656
1.1620865516763
1.1620865516761
1.16208655167601
1.16208655167607
1.16208655167626
1.16208655167658
1.16208655167712
1.16208655167791
1.16208655167889
1.16208655167961
1.16208655168
1.16208655167914
1.16208655167355
1.16208655165601
1.16208655160877
1.16208655148968
1.16208655120549
1.16208655055434
1.1620865491029
1.16208654590653
1.1620865388198
1.16208652271918
1.16208648501842
1.16208639527112
1.16208618381839
1.16208571007156
1.16208466779388
1.16208725845455
1.16208762175678
1.16208778994817
1.16208786710236
1.16208790057485
1.16208791475339
1.16208792076148
1.16208792335879
1.16208792450935
1.16208792502614
1.16208792525749
1.16208792535886
1.16208792540156
1.16208792541851
1.16208792542463
1.1620879254263
1.16208792542637
1.16208792542607
1.16208792542569
1.16208792542537
1.16208792542514
1.16208792542499
1.1620879254249
1.16208792542483
1.16208792542479
1.16208792542479
1.16208792542486
1.16208792542498
1.16208792542515
1.16208792542541
1.16208792542577
1.1620879254262
1.16208792542655
1.16208792542678
1.16208792542656
1.16208792542466
1.16208792541844
1.16208792540154
1.16208792535901
1.16208792525799
1.16208792502781
1.16208792451702
1.16208792339357
1.16208792089262
1.16208791515064
1.16208790148775
1.16208786831086
1.1620877883249
1.16208760448432
1.16208718834073
1.16208815011015
1.16208828772074
1.16208835023769
1.16208837840166
1.16208839041901
1.16208839543044
1.16208839752234
1.16208839841511
1.16208839880726
1.16208839898283
1.16208839906148
1.16208839909603
1.16208839911062
1.16208839911642
1.1620883991185
1.16208839911906
1.16208839911908
1.16208839911897
1.16208839911884
1.16208839911874
1.16208839911868
1.16208839911866
1.16208839911865
1.16208839911866
1.16208839911868
1.16208839911873
1.1620883991188
1.16208839911889
1.162088399119
1.16208839911914
1.16208839911933
1.16208839911954
1.16208839911973
1.16208839911987
1.16208839911987
1.16208839911928
1.16208839911719
1.16208839911137
1.16208839909669
1.16208839906193
1.16208839898311
1.162088398809
1.16208839842682
1.16208839757337
1.16208839559526
1.16208839081715
1.16208837899305
1.16208834985172
1.16208828123393
1.16208812187917
1.1620884552639
1.16208850542796
1.1620885278566
1.16208853779536
1.16208854197124
1.16208854368739
1.16208854439367
1.16208854469136
1.16208854482101
1.16208854487883
1.16208854490473
1.16208854491612
1.16208854492094
1.16208854492285
1.16208854492353
1.16208854492372
1.16208854492373
1.16208854492371
1.16208854492368
1.16208854492367
1.16208854492368
1.1620885449237
1.16208854492374
1.16208854492378
1.16208854492383
1.16208854492389
1.16208854492396
1.16208854492403
1.16208854492412
1.16208854492422
1.16208854492434
1.16208854492447
1.16208854492459
1.1620885449247
1.16208854492476
1.16208854492463
1.16208854492399
1.1620885449221
1.16208854491724
1.16208854490568
1.16208854487952
1.16208854482197
1.16208854469586
1.16208854441352
1.16208854375345
1.16208854213643
1.16208853806195
1.16208852780634
1.1620885030999
1.16208844437966
1.1620885445923
1.16208856224273
1.16208857002878
1.16208857342773
1.16208857483557
1.16208857540626
1.16208857563797
1.16208857573443
1.16208857577605
1.16208857579451
1.16208857580275
1.16208857580637
1.16208857580789
1.16208857580849
1.16208857580871
1.16208857580877
1.16208857580879
1.1620885758088
1.16208857580882
1.16208857580884
1.16208857580887
1.16208857580892
1.16208857580897
1.16208857580902
1.16208857580908
1.16208857580915
1.16208857580922
1.16208857580929
1.16208857580937
1.16208857580945
1.16208857580954
1.16208857580964
1.16208857580974
1.16208857580983
1.16208857580992
1.16208857580994
1.1620885758098
1.16208857580926
1.16208857580775
1.16208857580408
1.16208857579572
1.16208857577729
1.16208857573692
1.16208857564624
1.16208857543248
1.1620885749017
1.16208857354086
1.16208857004583
1.16208856144241
1.16208854056034
1.16208855730282
1.16208856331253
1.16208856593364
1.16208856706248
1.16208856752386
1.16208856770845
1.16208856778239
1.16208856781275
1.1620885678257
1.16208856783138
1.16208856783388
1.16208856783497
1.16208856783542
1.16208856783559
1.16208856783565
1.16208856783568
1.1620885678357
1.16208856783572
1.16208856783575
1.16208856783579
1.16208856783583
1.16208856783588
1.16208856783594
1.162088567836
1.16208856783606
1.16208856783613
1.1620885678362
1.16208856783627
1.16208856783635
1.16208856783643
1.16208856783651
1.16208856783659
1.16208856783668
1.16208856783677
1.16208856783686
1.16208856783693
1.16208856783696
1.16208856783687
1.16208856783648
1.16208856783542
1.16208856783289
1.16208856782724
1.16208856781475
1.16208856778652
1.16208856771929
1.16208856755004
1.16208856710865
1.16208856595284
1.16208856304894
1.16208855586382
1.16208854370452
1.16208854568909
1.16208854654631
1.16208854691095
1.16208854705813
1.16208854711623
1.16208854713914
1.16208854714838
1.16208854715223
1.16208854715388
1.16208854715458
1.16208854715486
1.16208854715497
1.16208854715501
1.16208854715502
1.16208854715504
1.16208854715506
1.16208854715509
1.16208854715512
1.16208854715517
1.16208854715522
1.16208854715527
1.16208854715533
1.16208854715539
1.16208854715546
1.16208854715552
1.16208854715559
1.16208854715567
1.16208854715574
1.16208854715582
1.1620885471559
1.16208854715598
1.16208854715606
1.16208854715615
1.16208854715624
1.16208854715633
1.16208854715641
1.16208854715646
1.16208854715643
1.1620885471562
1.16208854715555
1.16208854715395
1.16208854715029
1.16208854714183
1.16208854712135
1.16208854706892
1.16208854692972
1.1620885465582
1.16208854560639
1.16208854320894
1.16208852134756
1.1620885219844
1.1620885222571
1.16208852237176
1.16208852241745
1.1620885224352
1.16208852244205
1.16208852244471
1.16208852244576
1.16208852244617
1.16208852244631
1.16208852244635
1.16208852244636
1.16208852244636
1.16208852244636
1.16208852244638
1.1620885224464
1.16208852244643
1.16208852244647
1.16208852244652
1.16208852244657
1.16208852244662
1.16208852244668
1.16208852244675
1.16208852244681
1.16208852244688
1.16208852244695
1.16208852244702
1.1620885224471
1.16208852244717
1.16208852244725
1.16208852244733
1.16208852244741
1.1620885224475
1.16208852244759
1.16208852244768
1.16208852244778
1.16208852244787
1.16208852244795
1.16208852244798
1.1620885224479
1.16208852244755
1.16208852244661
1.16208852244425
1.16208852243828
1.16208852242256
1.16208852237988
1.16208852226371
1.16208852196036
1.16208852118309
1.16208849615759
1.16208849635647
1.16208849644085
1.1620884964759
1.16208849648966
1.16208849649486
1.16208849649678
1.16208849649746
1.16208849649767
1.16208849649772
1.1620884964977
1.16208849649768
1.16208849649766
1.16208849649765
1.16208849649765
1.16208849649767
1.16208849649769
1.16208849649773
1.16208849649777
1.16208849649781
1.16208849649787
1.16208849649792
1.16208849649799
1.16208849649805
1.16208849649812
1.16208849649818
1.16208849649825
1.16208849649833
1.1620884964984
1.16208849649848
1.16208849649855
1.16208849649863
1.16208849649871
1.1620884964988
1.16208849649888
1.16208849649898
1.16208849649908
1.16208849649918
1.16208849649929
1.1620884964994
1.16208849649948
1.1620884964995
1.16208849649936
1.16208849649882
1.16208849649723
1.16208849649274
1.16208849648008
1.16208849644479
1.16208849635075
1.16208849610553
1.16208847007564
1.16208847013611
1.16208847016141
1.16208847017175
1.16208847017571
1.16208847017713
1.16208847017758
1.16208847017768
1.16208847017766
1.16208847017761
1.16208847017756
1.16208847017752
1.1620884701775
1.16208847017749
1.1620884701775
1.16208847017752
1.16208847017754
1.16208847017758
1.16208847017762
1.16208847017767
1.16208847017773
1.16208847017779
1.16208847017785
1.16208847017791
1.16208847017798
1.16208847017805
1.16208847017812
1.16208847017819
1.16208847017826
1.16208847017834
1.16208847017841
1.16208847017849
1.16208847017857
1.16208847017865
1.16208847017874
1.16208847017883
1.16208847017893
1.16208847017903
1.16208847017915
1.16208847017927
1.16208847017939
1.16208847017951
1.1620884701796
1.16208847017958
1.16208847017926
1.1620884701781
1.16208847017452
1.16208847016419
1.16208847013593
1.16208847006059
1.16208844371985
1.16208844373771
1.16208844374494
1.1620884437478
1.16208844374884
1.16208844374915
1.16208844374919
1.16208844374914
1.16208844374907
1.16208844374901
1.16208844374896
1.16208844374892
1.1620884437489
1.1620884437489
1.16208844374891
1.16208844374893
1.16208844374896
1.162088443749
1.16208844374905
1.1620884437491
1.16208844374915
1.16208844374921
1.16208844374927
1.16208844374934
1.16208844374941
1.16208844374947
1.16208844374955
1.16208844374962
1.16208844374969
1.16208844374976
1.16208844374984
1.16208844374992
1.16208844375
1.16208844375008
1.16208844375016
1.16208844375025
1.16208844375034
1.16208844375044
1.16208844375055
1.16208844375067
1.1620884437508
1.16208844375093
1.16208844375107
1.16208844375118
1.16208844375121
1.162088443751
1.1620884437501
1.16208844374726
1.16208844373915
1.16208844371664
1.16208841728196
1.16208841728702
1.16208841728886
1.16208841728953
1.16208841728973
1.16208841728974
1.16208841728968
1.16208841728961
1.16208841728954
1.16208841728948
1.16208841728944
1.16208841728941
1.1620884172894
1.1620884172894
1.16208841728942
1.16208841728944
1.16208841728948
1.16208841728952
1.16208841728956
1.16208841728962
1.16208841728967
1.16208841728973
1.1620884172898
1.16208841728986
1.16208841728993
1.16208841729
1.16208841729007
1.16208841729014
1.16208841729022
1.16208841729029
1.16208841729036
1.16208841729044
1.16208841729052
1.16208841729059
1.16208841729068
1.16208841729076
1.16208841729085
1.16208841729094
1.16208841729105
1.16208841729116
1.16208841729128
1.1620884172914
1.16208841729154
1.16208841729167
1.16208841729178
1.16208841729182
1.16208841729167
1.16208841729102
1.16208841728893
1.16208841728245
1.16208839082001
1.16208839082132
1.16208839082159
1.16208839082164
1.16208839082162
1.16208839082156
1.16208839082149
1.16208839082143
1.16208839082137
1.16208839082133
1.1620883908213
1.16208839082128
1.16208839082128
1.16208839082129
1.16208839082131
1.16208839082134
1.16208839082138
1.16208839082142
1.16208839082147
1.16208839082153
1.16208839082158
1.16208839082165
1.16208839082171
1.16208839082178
1.16208839082185
1.16208839082192
1.16208839082199
1.16208839082206
1.16208839082213
1.1620883908222
1.16208839082228
1.16208839082235
1.16208839082243
1.1620883908225
1.16208839082258
1.16208839082266
1.16208839082274
1.16208839082283
1.16208839082293
1.16208839082303
1.16208839082313
1.16208839082325
1.16208839082337
1.16208839082349
1.1620883908236
1.16208839082369
1.16208839082373
1.1620883908237
1.16208839082336
1.16208839082163
1.16208836435114
1.16208836435138
1.16208836435121
1.1620883643511
1.16208836435104
1.16208836435098
1.16208836435093
1.16208836435089
1.16208836435085
1.16208836435082
1.1620883643508
1.1620883643508
1.16208836435081
1.16208836435082
1.16208836435085
1.16208836435088
1.16208836435093
1.16208836435097
1.16208836435102
1.16208836435108
1.16208836435114
1.1620883643512
1.16208836435127
1.16208836435134
1.16208836435141
1.16208836435148
1.16208836435155
1.16208836435162
1.16208836435169
1.16208836435176
1.16208836435183
1.16208836435191
1.16208836435198
1.16208836435205
1.16208836435213
1.1620883643522
1.16208836435228
1.16208836435236
1.16208836435245
1.16208836435254
1.16208836435263
1.16208836435273
1.16208836435283
1.16208836435293
1.16208836435303
1.16208836435311
1.16208836435319
1.16208836435331
1.16208836435346
1.1620883643531
1.16208833788032
1.16208833788027
1.16208833787999
1.16208833787985
1.1620883378798
1.16208833787976
1.16208833787973
1.16208833787971
1.16208833787969
1.16208833787968
1.16208833787967
1.16208833787968
1.1620883378797
1.16208833787972
1.16208833787975
1.16208833787979
1.16208833787984
1.16208833787989
1.16208833787994
1.16208833788
1.16208833788007
1.16208833788013
1.1620883378802
1.16208833788026
1.16208833788033
1.1620883378804
1.16208833788048
1.16208833788055
1.16208833788062
1.16208833788069
1.16208833788076
1.16208833788083
1.1620883378809
1.16208833788097
1.16208833788104
1.16208833788112
1.16208833788119
1.16208833788126
1.16208833788134
1.16208833788142
1.1620883378815
1.16208833788158
1.16208833788166
1.16208833788174
1.16208833788181
1.16208833788188
1.16208833788195
1.16208833788209
1.16208833788236
1.16208833788239
1.16208831140896
1.16208831140884
1.16208831140855
1.16208831140842
1.16208831140838
1.16208831140837
1.16208831140836
1.16208831140836
1.16208831140836
1.16208831140836
1.16208831140837
1.16208831140839
1.16208831140842
1.16208831140845
1.16208831140849
1.16208831140853
1.16208831140858
1.16208831140863
1.16208831140869
1.16208831140875
1.16208831140882
1.16208831140888
1.16208831140895
1.16208831140902
1.16208831140909
1.16208831140916
1.16208831140923
1.1620883114093
1.16208831140937
1.16208831140944
1.16208831140951
1.16208831140958
1.16208831140965
1.16208831140972
1.16208831140979
1.16208831140985
1.16208831140992
1.16208831140999
1.16208831141005
1.16208831141012
1.16208831141019
1.16208831141025
1.16208831141032
1.16208831141037
1.16208831141042
1.16208831141046
1.16208831141051
1.16208831141065
1.16208831141095
1.16208831141107
1.16208828493746
1.16208828493732
1.16208828493704
1.16208828493693
1.16208828493691
1.16208828493692
1.16208828493694
1.16208828493696
1.16208828493697
1.16208828493699
1.16208828493702
1.16208828493705
1.16208828493708
1.16208828493712
1.16208828493717
1.16208828493722
1.16208828493727
1.16208828493733
1.16208828493739
1.16208828493746
1.16208828493752
1.16208828493759
1.16208828493766
1.16208828493773
1.1620882849378
1.16208828493787
1.16208828493794
1.16208828493801
1.16208828493808
1.16208828493815
1.16208828493822
1.16208828493829
1.16208828493835
1.16208828493842
1.16208828493848
1.16208828493854
1.1620882849386
1.16208828493866
1.16208828493872
1.16208828493878
1.16208828493883
1.16208828493888
1.16208828493893
1.16208828493896
1.16208828493899
1.162088284939
1.16208828493903
1.16208828493914
1.16208828493944
1.16208828493958
1.16208825846591
1.16208825846577
1.16208825846551
1.16208825846542
1.16208825846543
1.16208825846547
1.1620882584655
1.16208825846554
1.16208825846558
1.16208825846561
1.16208825846565
1.16208825846569
1.16208825846574
1.16208825846578
1.16208825846584
1.16208825846589
1.16208825846595
1.16208825846601
1.16208825846607
1.16208825846614
1.16208825846621
1.16208825846628
1.16208825846635
1.16208825846642
1.16208825846649
1.16208825846656
1.16208825846663
1.1620882584667
1.16208825846677
1.16208825846684
1.16208825846691
1.16208825846697
1.16208825846703
1.1620882584671
1.16208825846716
1.16208825846721
1.16208825846727
1.16208825846732
1.16208825846737
1.16208825846741
1.16208825846746
1.16208825846749
1.16208825846752
1.16208825846753
1.16208825846754
1.16208825846753
1.16208825846753
1.16208825846762
1.1620882584679
1.16208825846804
1.16208823199434
1.16208823199422
1.16208823199397
1.16208823199391
1.16208823199394
1.162088231994
1.16208823199406
1.16208823199412
1.16208823199417
1.16208823199422
1.16208823199427
1.16208823199432
1.16208823199438
1.16208823199443
1.16208823199449
1.16208823199455
1.16208823199462
1.16208823199468
1.16208823199475
1.16208823199482
1.16208823199489
1.16208823199496
1.16208823199503
1.1620882319951
1.16208823199517
1.16208823199524
1.16208823199531
1.16208823199538
1.16208823199545
1.16208823199552
1.16208823199558
1.16208823199565
1.16208823199571
1.16208823199577
1.16208823199582
1.16208823199587
1.16208823199592
1.16208823199597
1.16208823199601
1.16208823199604
1.16208823199607
1.16208823199609
1.1620882319961
1.1620882319961
1.16208823199608
1.16208823199605
1.16208823199603
1.16208823199609
1.16208823199635
1.16208823199649
1.16208820552276
1.16208820552265
1.16208820552243
1.16208820552239
1.16208820552245
1.16208820552253
1.16208820552261
1.16208820552269
1.16208820552276
1.16208820552282
1.16208820552289
1.16208820552295
1.16208820552302
1.16208820552308
1.16208820552314
1.16208820552321
1.16208820552328
1.16208820552335
1.16208820552342
1.16208820552349
1.16208820552356
1.16208820552363
1.1620882055237
1.16208820552378
1.16208820552385
1.16208820552392
1.16208820552399
1.16208820552406
1.16208820552413
1.16208820552419
1.16208820552426
1.16208820552432
1.16208820552438
1.16208820552443
1.16208820552448
1.16208820552453
1.16208820552457
1.16208820552461
1.16208820552464
1.16208820552467
1.16208820552468
1.16208820552469
1.16208820552468
1.16208820552466
1.16208820552462
1.16208820552456
1.16208820552452
1.16208820552456
1.1620882055248
1.16208820552492
1.16208817905118
1.16208817905108
1.16208817905088
1.16208817905087
1.16208817905095
1.16208817905106
1.16208817905116
1.16208817905126
1.16208817905134
1.16208817905142
1.1620881790515
1.16208817905157
1.16208817905165
1.16208817905172
1.16208817905179
1.16208817905186
1.16208817905193
1.16208817905201
1.16208817905208
1.16208817905215
1.16208817905223
1.1620881790523
1.16208817905237
1.16208817905245
1.16208817905252
1.16208817905259
1.16208817905266
1.16208817905273
1.1620881790528
1.16208817905286
1.16208817905292
1.16208817905298
1.16208817905304
1.16208817905309
1.16208817905314
1.16208817905318
1.16208817905322
1.16208817905325
1.16208817905327
1.16208817905328
1.16208817905329
1.16208817905328
1.16208817905325
1.16208817905321
1.16208817905315
1.16208817905308
1.16208817905301
1.16208817905302
1.16208817905324
1.16208817905334
1.16208815257958
1.1620881525795
1.16208815257933
1.16208815257935
1.16208815257946
1.16208815257959
1.16208815257971
1.16208815257982
1.16208815257993
1.16208815258002
1.16208815258011
1.16208815258019
1.16208815258027
1.16208815258035
1.16208815258043
1.16208815258051
1.16208815258058
1.16208815258066
1.16208815258074
1.16208815258081
1.16208815258089
1.16208815258096
1.16208815258104
1.16208815258111
1.16208815258119
1.16208815258126
1.16208815258133
1.1620881525814
1.16208815258146
1.16208815258153
1.16208815258159
1.16208815258164
1.1620881525817
1.16208815258175
1.16208815258179
1.16208815258183
1.16208815258186