/*--------------------------------*- C++ -*----------------------------------*\
  =========                 |
  \\      /  F ield         | OpenFOAM: The Open Source CFD Toolbox
   \\    /   O peration     | Website:  https://openfoam.org
    \\  /    A nd           | Version:  10
     \\/     M anipulation  |
\*---------------------------------------------------------------------------*/
FoamFile
{
    format      ascii;
    class       volScalarField;
    location    "6";
    object      T;
}
// * * * * * * * * * * * * * * * * * * * * * * * * * * * * * * * * * * * * * //

dimensions      [0 0 0 1 0 0 0];

internalField   nonuniform List<scalar> 
2500
(
304.612391615983
304.604755502386
304.590998884085
304.581587696207
304.576146534577
304.573182784809
304.571624081564
304.57083231952
304.57044649244
304.570267830897
304.570187671242
304.570153481221
304.570139456072
304.570133299617
304.570130379833
304.570128557868
304.570127700954
304.570126870548
304.570126004549
304.570125401596
304.570124889441
304.570124446299
304.570124081493
304.570123855689
304.570123624568
304.570123427892
304.570123354782
304.570123325
304.57012335252
304.570123453489
304.57012363393
304.570123971615
304.570124387617
304.570124952279
304.570125751867
304.570127131466
304.570129963191
304.570136251384
304.570151883796
304.570188243149
304.570271666001
304.570456118019
304.570847034335
304.57164059939
304.573193879301
304.576136620219
304.58155968167
304.591013158303
304.604893064653
304.612270991744
303.602676986137
303.56667757768
303.527249155284
303.500609245413
303.484740617833
303.47576450414
303.470850998067
303.468255900122
303.466943108196
303.466310454624
303.466019822367
303.465892817278
303.465839912619
303.465818555298
303.465810079185
303.465806579633
303.465805176846
303.465804386024
303.46580377192
303.465803338603
303.465802970825
303.46580263625
303.465802352807
303.465802163262
303.465801994694
303.465801848862
303.465801776653
303.465801731995
303.46580171049
303.465801746541
303.465801839364
303.465802042175
303.465802456446
303.465803219018
303.465804741128
303.465808426801
303.465817797581
303.465841290003
303.465898829501
303.466033463002
303.466335560629
303.466983276579
303.468309205326
303.470905278847
303.475793224932
303.484711761185
303.500547824886
303.527348625541
303.567216748192
303.602330648318
302.598245428727
302.539228277478
302.484801190239
302.449116118094
302.428040961506
302.416162440004
302.409667568337
302.406234428109
302.404493399431
302.403650991086
302.40326269371
302.403092376462
302.403021235281
302.402992747444
302.402981729989
302.402977531398
302.402975977693
302.402975303247
302.402974903053
302.402974637969
302.402974410667
302.40297418829
302.402973990085
302.402973854269
302.402973745748
302.402973650098
302.40297359531
302.402973552007
302.4029735103
302.402973499461
302.402973516271
302.402973616842
302.402973988918
302.402974793501
302.402976571986
302.402981220376
302.402993467369
302.403024652369
302.403101100649
302.403280260288
302.403681775492
302.404540952357
302.406296474966
302.409729948173
302.416195410171
302.428016879612
302.44909558165
302.485094110261
302.540339998459
302.598874560539
301.733213593293
301.66622746983
301.612164781296
301.578082863962
301.558576506436
301.547895313851
301.542202134049
301.539255459304
301.53778599499
301.537084302112
301.536764335225
301.536625221787
301.536567567334
301.536544703968
301.536535994962
301.536532788229
301.536531661744
301.53653123599
301.536531026348
301.536530897261
301.536530780757
301.536530651407
301.536530525812
301.536530438875
301.536530377031
301.536530321907
301.536530287159
301.536530253812
301.53653021221
301.5365301883
301.536530169683
301.536530165938
301.536530404599
301.53653099991
301.536532298194
301.536535822601
301.536545338008
301.53656996349
301.536631068219
301.536776050884
301.53710505568
301.537818695154
301.539299556638
301.542249235926
301.547927299259
301.558585075925
301.578157314747
301.612666796953
301.667809104497
301.735249147945
301.072921291346
301.011914775507
300.967367867404
300.940361991328
300.925404674031
300.917457804386
300.913331326464
300.911239437217
300.910212335985
300.909727355501
300.909507984048
300.909413153498
300.909374027976
300.909358592497
300.909352767337
300.909350674949
300.909349977743
300.909349748121
300.909349658489
300.909349612917
300.909349568518
300.90934950524
300.909349433793
300.909349383956
300.909349354007
300.909349327294
300.909349308575
300.909349286717
300.909349254744
300.909349229188
300.909349197175
300.909349149737
300.909349279854
300.909349650094
300.909350453233
300.909352716586
300.909358942266
300.909375241395
300.909416059396
300.909513799852
300.909737772856
300.91022909419
300.911262684375
300.913357251983
300.917478557318
300.925426288861
300.940481079152
300.967936245573
301.013639578182
301.075886671304
300.618892599125
300.571505701144
300.539590010289
300.520948033451
300.510947521412
300.505787765385
300.503175357618
300.501876702916
300.501247885405
300.500953688758
300.500821370737
300.500764358071
300.500740882566
300.500731643327
300.500728178771
300.500726959574
300.500726575958
300.500726467027
300.500726436663
300.500726433872
300.500726430175
300.500726407209
300.500726371012
300.500726345647
300.500726334623
300.500726324568
300.500726315985
300.500726303464
300.500726282639
300.500726261573
300.500726230448
300.500726178134
300.500726237519
300.500726436689
300.500726876402
300.50072817371
300.500731795861
300.500741355305
300.500765455674
300.500823537714
300.500957586854
300.50125426045
300.501885647322
300.503185229055
300.505795922286
300.510964498194
300.521057219076
300.54008685867
300.573046169237
300.622005069234
300.334150002304
300.301690204353
300.281267354599
300.269747022338
300.263751139703
300.260742535041
300.259255470693
300.258529708641
300.258182654109
300.258021501042
300.257949298171
300.257918230039
300.25790543979
300.257900409193
300.257898531986
300.257897882619
300.257897690271
300.257897653055
300.257897654994
300.257897658286
300.257897662805
300.257897660942
300.257897644814
300.257897633766
300.257897632586
300.257897630239
300.257897626942
300.257897620782
300.257897608712
300.257897593908
300.257897570163
300.257897529974
300.257897550509
300.257897643272
300.257897861724
300.257898543335
300.257900468317
300.257905574626
300.257918507549
300.257949805025
300.25802238729
300.258184097335
300.258531579256
300.259256828442
300.260742348419
300.263758063418
300.269821345019
300.281627481537
300.302865447476
300.336808245184
300.169635851381
300.149602340534
300.137717170381
300.131227543169
300.127944493976
300.126339749447
300.125564473915
300.125192614179
300.125016804147
300.124935674336
300.124899412032
300.1248838076
300.124877376234
300.12487484558
300.124873905198
300.124873585215
300.124873500332
300.124873493116
300.124873499679
300.12487350624
300.124873510303
300.124873511789
300.124873507314
300.124873504123
300.124873506406
300.124873506597
300.124873505498
300.124873502718
300.12487349625
300.124873487
300.124873471676
300.124873448484
300.124873449145
300.124873483875
300.124873586734
300.124873920187
300.124874869813
300.124877396286
300.124883813396
300.124899375959
300.124935567958
300.125016580493
300.125192028816
300.125562788484
300.12633612337
300.127943924547
300.131267700075
300.137942313024
300.150390413173
300.171587491193
300.081331015529
300.070020151072
300.063645443486
300.060268845936
300.058605406346
300.057812072299
300.057437018776
300.057260072482
300.057177290174
300.057139288473
300.057122325064
300.05711501694
300.057111998645
300.057110809713
300.057110369588
300.057110223137
300.057110188774
300.057110189792
300.057110195997
300.057110201602
300.057110204443
300.057110205818
300.057110205895
300.057110206503
300.057110208439
300.057110209301
300.057110209035
300.057110207627
300.057110204343
300.05711019907
300.057110190257
300.057110177763
300.057110174271
300.057110185425
300.057110229456
300.057110382663
300.057110822302
300.057111993842
300.057114973445
300.05712220231
300.057139029683
300.057176805225
300.057259124564
300.057435010409
300.057808148769
300.058601664021
300.060286056529
300.063769840189
300.070494237588
300.082602027453
300.036979797207
300.031070287578
300.027886255289
300.026246917228
300.025459115057
300.025091956747
300.024921920848
300.024842960082
300.024806382841
300.024789667085
300.024782208986
300.024778989646
300.024777656405
300.024777130497
300.02477693654
300.0247768738
300.024776860988
300.02477686314
300.024776867374
300.024776871075
300.024776873366
300.024776874749
300.024776875335
300.02477687612
300.024776877382
300.02477687811
300.024776878061
300.024776877344
300.024776875751
300.024776872967
300.024776868337
300.024776862047
300.024776859407
300.024776862095
300.024776879259
300.02477694584
300.024777138397
300.02477765205
300.024778958412
300.024782124167
300.024789488365
300.024806040915
300.024842281841
300.024920472851
300.025089000652
300.025455159209
300.026252211103
300.027947963404
300.031330096075
300.037729267859
300.016007485571
300.01312439027
300.011631036857
300.010882291519
300.010530734544
300.01037039513
300.010297582246
300.010264281991
300.010249001206
300.010242045502
300.010238941686
300.010237598524
300.01023704051
300.010236820063
300.010236739062
300.010236713752
300.010236709385
300.010236710901
300.010236713332
300.010236715439
300.010236716867
300.010236717781
300.010236718297
300.010236718885
300.010236719587
300.010236720023
300.010236720015
300.010236719666
300.010236718922
300.010236717548
300.01023671529
300.01023671231
300.010236710882
300.010236711213
300.010236717421
300.010236744822
300.010236825111
300.010237039531
300.010237584202
300.010238900848
300.010241957074
300.010248824954
300.010263911686
300.010296740556
300.010368549646
300.010527771769
300.010882774239
300.011658789923
300.013255639589
300.016413515322
300.006620314716
300.005297143881
300.004634978138
300.004311096893
300.004162298313
300.004095796961
300.0040661563
300.00405279925
300.004046725642
300.004043970887
300.004042740973
300.004042207183
300.004041984659
300.004041896616
300.004041864378
300.004041854643
300.004041853301
300.004041854189
300.004041855438
300.004041856517
300.004041857285
300.004041857796
300.004041858127
300.004041858474
300.004041858823
300.004041859043
300.004041859042
300.004041858881
300.004041858543
300.004041857902
300.004041856869
300.00404185553
300.004041854785
300.004041854662
300.004041856838
300.004041867578
300.004041899619
300.004041985318
300.004042202525
300.004042725685
300.004043935908
300.004046651182
300.004052627824
300.004065729151
300.004094782042
300.004160452356
300.00431025691
300.004646348038
300.005358841356
300.006824649018
300.00262449546
300.002049747789
300.001770596865
300.001637168787
300.001577105696
300.00155076847
300.001539236181
300.001534113185
300.001531804294
300.001530760565
300.001530294185
300.001530091133
300.001530006182
300.001529972521
300.001529960244
300.001529956657
300.001529956293
300.001529956749
300.001529957337
300.001529957846
300.00152995822
300.001529958476
300.001529958655
300.001529958832
300.001529958991
300.001529959089
300.001529959089
300.001529959019
300.00152995887
300.001529958587
300.001529958141
300.001529957568
300.001529957206
300.001529957073
300.001529957812
300.001529961856
300.00152997415
300.001530007096
300.001530090339
300.001530289926
300.001530749554
300.001531777903
300.001534043188
300.001539039873
300.001550261247
300.001576090851
300.0016363117
300.001774835632
300.002076941082
300.002720846857
300.001000263247
300.000762752205
300.00065033477
300.000597738133
300.000574509067
300.000564503505
300.00056019553
300.000558308085
300.000557464778
300.000557084773
300.0005569148
300.000556840553
300.000556809377
300.000556797006
300.000556792517
300.000556791258
300.000556791171
300.000556791371
300.000556791628
300.000556791851
300.000556792019
300.000556792138
300.000556792224
300.000556792305
300.000556792372
300.000556792413
300.000556792413
300.000556792383
300.00055679232
300.000556792201
300.000556792018
300.000556791785
300.000556791622
300.000556791544
300.000556791789
300.000556793259
300.000556797814
300.000556810043
300.000556840824
300.000556914236
300.00055708239
300.000557457163
300.000558282422
300.000560112036
300.00056426868
300.000574001589
300.000597170696
300.00065175894
300.000774060223
300.001043132075
300.000367500362
300.000273711459
300.000230291651
300.000210373612
300.000201732295
300.000198071849
300.00019652069
300.000195850073
300.000195552971
300.000195419503
300.000195359738
300.000195333543
300.000195322503
300.000195318115
300.000195316532
300.000195316101
300.000195316085
300.000195316169
300.000195316274
300.000195316366
300.000195316437
300.000195316487
300.000195316524
300.000195316558
300.000195316585
300.000195316601
300.000195316601
300.000195316589
300.000195316563
300.000195316516
300.000195316445
300.000195316354
300.000195316287
300.000195316251
300.000195316331
300.000195316848
300.000195318484
300.000195322881
300.000195333899
300.000195360025
300.000195419506
300.000195551445
300.000195841564
300.000196487318
300.000197969791
300.000201497132
300.000210062145
300.000230711231
300.000278170979
300.00038560122
300.000130480056
300.000094954973
300.000078815733
300.000071544868
300.000068442359
300.000067148479
300.00006660832
300.000066377749
300.000066276438
300.00006623106
300.000066210716
300.000066201769
300.000066197983
300.000066196476
300.000066195933
300.000066195789
300.000066195787
300.000066195819
300.000066195859
300.000066195895
300.000066195922
300.000066195942
300.000066195956
300.00006619597
300.000066195979
300.000066195985
300.000066195985
300.00006619598
300.00006619597
300.000066195953
300.000066195927
300.000066195893
300.000066195867
300.000066195853
300.00006619588
300.000066196058
300.00006619663
300.000066198166
300.000066201996
300.000066211018
300.000066231425
300.000066276444
300.000066375197
300.000066595633
300.000067106426
300.000068340084
300.000071392712
300.000078915893
300.000096630102
300.000137768573
300.000044868985
300.000031918778
300.000026128599
300.000023562712
300.000022484549
300.000022041385
300.000021858945
300.000021782005
300.000021748465
300.000021733485
300.00002172676
300.000021723791
300.000021722529
300.000021722024
300.000021721842
300.000021721793
300.000021721792
300.000021721803
300.000021721817
300.000021721829
300.000021721838
300.000021721845
300.00002172185
300.000021721855
300.000021721858
300.00002172186
300.00002172186
300.000021721858
300.000021721855
300.000021721849
300.00002172184
300.000021721828
300.00002172182
300.000021721815
300.000021721825
300.000021721886
300.000021722082
300.000021722606
300.000021723902
300.000021726934
300.000021733744
300.000021748673
300.000021781315
300.000021854307
300.000022024828
300.000022442413
300.000023494408
300.000026142095
300.0000325203
300.000047679329
300.000014974539
300.000010417934
300.000008407843
300.00000753027
300.000007166713
300.000007019273
300.000006959357
300.000006934374
300.000006923565
300.000006918749
300.000006916582
300.000006915621
300.00000691521
300.000006915044
300.000006914983
300.000006914965
300.000006914963
300.000006914965
300.000006914969
300.000006914972
300.000006914974
300.000006914976
300.000006914977
300.000006914978
300.000006914979
300.000006914979
300.000006914979
300.000006914979
300.000006914978
300.000006914976
300.000006914974
300.00000691497
300.000006914968
300.000006914968
300.000006914972
300.000006914995
300.000006915061
300.000006915237
300.000006915666
300.000006916661
300.000006918877
300.000006923702
300.000006934206
300.000006957711
300.000007013005
300.000007150152
300.000007501583
300.000008403963
300.000010625059
300.000016015923
300.000004859454
300.000003307978
300.000002631263
300.000002339754
300.000002220547
300.000002172796
300.000002153621
300.000002145708
300.000002142307
300.000002140794
300.000002140111
300.000002139805
300.000002139672
300.000002139616
300.000002139594
300.000002139586
300.000002139584
300.000002139583
300.000002139583
300.000002139582
300.000002139582
300.000002139582
300.000002139582
300.000002139582
300.000002139581
300.000002139581
300.000002139581
300.000002139581
300.000002139581
300.000002139581
300.000002139581
300.000002139581
300.000002139581
300.000002139582
300.000002139585
300.000002139594
300.000002139618
300.000002139677
300.000002139817
300.000002140138
300.000002140844
300.000002142368
300.000002145668
300.000002153046
300.0000021705
300.000002214301
300.000002328352
300.000002626831
300.000003376545
300.000005231454
300.000001536149
300.000001023795
300.00000080245
300.000000708237
300.000000670159
300.000000655077
300.000000649084
300.000000646633
300.000000645584
300.000000645116
300.000000644903
300.000000644805
300.000000644761
300.000000644741
300.000000644731
300.000000644726
300.000000644723
300.000000644721
300.00000064472
300.000000644718
300.000000644717
300.000000644716
300.000000644715
300.000000644715
300.000000644714
300.000000644714
300.000000644714
300.000000644714
300.000000644714
300.000000644715
300.000000644715
300.000000644716
300.000000644717
300.000000644719
300.000000644722
300.000000644726
300.000000644736
300.000000644757
300.000000644804
300.000000644908
300.00000064513
300.000000645603
300.000000646618
300.000000648882
300.000000654257
300.000000667886
300.000000703912
300.000000799904
300.000001045663
300.000001664599
300.000000473942
300.000000309518
300.00000023908
300.000000209417
300.000000197551
300.000000192897
300.000000191063
300.000000190317
300.000000189997
300.000000189853
300.000000189785
300.000000189752
300.000000189735
300.000000189726
300.00000018972
300.000000189716
300.000000189713
300.000000189711
300.000000189709
300.000000189707
300.000000189705
300.000000189704
300.000000189703
300.000000189702
300.000000189702
300.000000189701
300.000000189701
300.000000189701
300.000000189702
300.000000189702
300.000000189703
300.000000189704
300.000000189706
300.000000189708
300.00000018971
300.000000189714
300.000000189719
300.000000189728
300.000000189745
300.00000018978
300.000000189851
300.000000189998
300.000000190306
300.000000190988
300.000000192608
300.000000196748
300.000000207841
300.000000237898
300.000000316248
300.000000516917
300.000000143096
300.000000091739
300.000000069924
300.000000060824
300.000000057214
300.000000055808
300.000000055256
300.000000055031
300.000000054932
300.000000054885
300.000000054861
300.000000054847
300.000000054839
300.000000054833
300.000000054829
300.000000054825
300.000000054822
300.000000054819
300.000000054817
300.000000054815
300.000000054814
300.000000054812
300.000000054811
300.00000005481
300.00000005481
300.000000054809
300.000000054809
300.00000005481
300.00000005481
300.000000054811
300.000000054812
300.000000054813
300.000000054815
300.000000054817
300.000000054819
300.000000054822
300.000000054826
300.000000054831
300.000000054839
300.000000054853
300.000000054878
300.000000054925
300.00000005502
300.000000055224
300.000000055704
300.000000056935
300.000000060269
300.000000069434
300.000000093739
300.000000157055
300.000000042519
300.000000026897
300.000000020341
300.00000001763
300.000000016559
300.000000016142
300.000000015976
300.000000015906
300.000000015873
300.000000015855
300.000000015844
300.000000015837
300.000000015831
300.000000015826
300.000000015822
300.000000015818
300.000000015815
300.000000015813
300.00000001581
300.000000015808
300.000000015807
300.000000015805
300.000000015804
300.000000015803
300.000000015803
300.000000015802
300.000000015802
300.000000015802
300.000000015803
300.000000015804
300.000000015805
300.000000015806
300.000000015808
300.00000001581
300.000000015812
300.000000015815
300.000000015819
300.000000015823
300.000000015828
300.000000015835
300.000000015846
300.000000015864
300.000000015895
300.000000015958
300.0000000161
300.000000016461
300.000000017438
300.000000020153
300.00000002747
300.000000046927
300.000000012635
300.000000008018
300.000000006133
300.000000005361
300.000000005053
300.00000000493
300.000000004879
300.000000004854
300.000000004841
300.000000004831
300.000000004824
300.000000004818
300.000000004813
300.000000004808
300.000000004804
300.000000004801
300.000000004798
300.000000004795
300.000000004793
300.000000004791
300.000000004789
300.000000004788
300.000000004786
300.000000004786
300.000000004785
300.000000004785
300.000000004785
300.000000004785
300.000000004785
300.000000004786
300.000000004787
300.000000004788
300.00000000479
300.000000004792
300.000000004794
300.000000004797
300.000000004801
300.000000004805
300.000000004809
300.000000004815
300.000000004821
300.00000000483
300.000000004843
300.000000004865
300.000000004909
300.000000005015
300.000000005294
300.000000006064
300.000000008174
300.000000013989
300.000000003946
300.000000002635
300.000000002147
300.00000000195
300.000000001867
300.000000001831
300.000000001813
300.000000001801
300.000000001793
300.000000001786
300.000000001779
300.000000001774
300.000000001769
300.000000001765
300.000000001761
300.000000001757
300.000000001754
300.000000001751
300.000000001749
300.000000001747
300.000000001745
300.000000001744
300.000000001743
300.000000001742
300.000000001741
300.000000001741
300.000000001741
300.000000001741
300.000000001742
300.000000001742
300.000000001743
300.000000001745
300.000000001747
300.000000001749
300.000000001751
300.000000001754
300.000000001757
300.000000001761
300.000000001765
300.00000000177
300.000000001776
300.000000001782
300.00000000179
300.0000000018
300.000000001817
300.000000001849
300.000000001925
300.000000002122
300.000000002675
300.000000004348
300.000000001471
300.000000001131
300.000000001052
300.000000001022
300.000000001004
300.000000000992
300.000000000983
300.000000000975
300.000000000968
300.000000000962
300.000000000956
300.000000000951
300.000000000946
300.000000000941
300.000000000938
300.000000000934
300.000000000931
300.000000000928
300.000000000926
300.000000000924
300.000000000922
300.000000000921
300.00000000092
300.000000000919
300.000000000918
300.000000000918
300.000000000918
300.000000000918
300.000000000918
300.000000000919
300.00000000092
300.000000000922
300.000000000923
300.000000000925
300.000000000928
300.000000000931
300.000000000934
300.000000000938
300.000000000942
300.000000000947
300.000000000952
300.000000000958
300.000000000964
300.000000000971
300.00000000098
300.000000000992
300.000000001011
300.000000001042
300.000000001139
300.000000001584
300.00000000078
300.00000000072
300.000000000757
300.000000000775
300.000000000774
300.000000000769
300.000000000763
300.000000000756
300.000000000749
300.000000000743
300.000000000737
300.000000000732
300.000000000727
300.000000000723
300.000000000719
300.000000000716
300.000000000713
300.00000000071
300.000000000708
300.000000000706
300.000000000704
300.000000000702
300.000000000701
300.000000000701
300.0000000007
300.0000000007
300.0000000007
300.0000000007
300.0000000007
300.000000000701
300.000000000702
300.000000000703
300.000000000705
300.000000000707
300.00000000071
300.000000000712
300.000000000716
300.000000000719
300.000000000724
300.000000000728
300.000000000733
300.000000000739
300.000000000745
300.000000000751
300.000000000758
300.000000000765
300.000000000768
300.000000000753
300.000000000719
300.000000000808
300.000000000591
300.00000000061
300.00000000068
300.00000000071
300.000000000715
300.000000000711
300.000000000705
300.000000000699
300.000000000692
300.000000000686
300.00000000068
300.000000000675
300.00000000067
300.000000000666
300.000000000662
300.000000000659
300.000000000656
300.000000000653
300.000000000651
300.000000000649
300.000000000647
300.000000000646
300.000000000644
300.000000000644
300.000000000643
300.000000000643
300.000000000643
300.000000000643
300.000000000643
300.000000000644
300.000000000645
300.000000000646
300.000000000648
300.00000000065
300.000000000653
300.000000000655
300.000000000659
300.000000000662
300.000000000666
300.000000000671
300.000000000676
300.000000000682
300.000000000688
300.000000000694
300.0000000007
300.000000000706
300.000000000705
300.000000000677
300.000000000607
300.000000000595
300.000000000542
300.000000000582
300.000000000661
300.000000000694
300.0000000007
300.000000000697
300.000000000691
300.000000000684
300.000000000677
300.000000000671
300.000000000665
300.00000000066
300.000000000655
300.000000000651
300.000000000647
300.000000000644
300.000000000641
300.000000000638
300.000000000636
300.000000000634
300.000000000632
300.000000000631
300.00000000063
300.000000000629
300.000000000628
300.000000000628
300.000000000628
300.000000000628
300.000000000629
300.000000000629
300.00000000063
300.000000000632
300.000000000633
300.000000000635
300.000000000638
300.000000000641
300.000000000644
300.000000000647
300.000000000652
300.000000000656
300.000000000661
300.000000000667
300.000000000673
300.00000000068
300.000000000686
300.000000000691
300.000000000689
300.000000000659
300.000000000579
300.000000000538
300.00000000053
300.000000000577
300.000000000657
300.000000000691
300.000000000696
300.000000000693
300.000000000686
300.00000000068
300.000000000673
300.000000000667
300.000000000661
300.000000000656
300.000000000651
300.000000000646
300.000000000643
300.000000000639
300.000000000636
300.000000000634
300.000000000632
300.00000000063
300.000000000628
300.000000000627
300.000000000626
300.000000000625
300.000000000624
300.000000000624
300.000000000624
300.000000000624
300.000000000625
300.000000000625
300.000000000626
300.000000000628
300.000000000629
300.000000000631
300.000000000634
300.000000000636
300.00000000064
300.000000000643
300.000000000647
300.000000000652
300.000000000657
300.000000000663
300.000000000669
300.000000000676
300.000000000682
300.000000000688
300.000000000686
300.000000000656
300.000000000574
300.000000000525
300.000000000529
300.000000000577
300.000000000658
300.000000000691
300.000000000696
300.000000000692
300.000000000685
300.000000000678
300.000000000671
300.000000000665
300.000000000659
300.000000000654
300.000000000649
300.000000000645
300.000000000641
300.000000000638
300.000000000635
300.000000000632
300.00000000063
300.000000000628
300.000000000626
300.000000000625
300.000000000624
300.000000000623
300.000000000623
300.000000000623
300.000000000622
300.000000000623
300.000000000623
300.000000000624
300.000000000625
300.000000000626
300.000000000628
300.00000000063
300.000000000632
300.000000000635
300.000000000638
300.000000000642
300.000000000646
300.00000000065
300.000000000656
300.000000000661
300.000000000668
300.000000000675
300.000000000682
300.000000000688
300.000000000687
300.000000000657
300.000000000575
300.000000000524
300.000000000532
300.00000000058
300.00000000066
300.000000000692
300.000000000696
300.000000000691
300.000000000684
300.000000000677
300.00000000067
300.000000000663
300.000000000657
300.000000000652
300.000000000647
300.000000000643
300.00000000064
300.000000000636
300.000000000633
300.000000000631
300.000000000629
300.000000000627
300.000000000625
300.000000000624
300.000000000623
300.000000000622
300.000000000622
300.000000000622
300.000000000622
300.000000000622
300.000000000622
300.000000000623
300.000000000624
300.000000000625
300.000000000627
300.000000000629
300.000000000631
300.000000000634
300.000000000637
300.00000000064
300.000000000645
300.000000000649
300.000000000655
300.000000000661
300.000000000667
300.000000000674
300.000000000682
300.000000000688
300.000000000688
300.000000000659
300.000000000577
300.000000000526
300.000000000535
300.000000000584
300.000000000662
300.000000000693
300.000000000697
300.000000000691
300.000000000683
300.000000000676
300.000000000668
300.000000000662
300.000000000656
300.000000000651
300.000000000646
300.000000000642
300.000000000638
300.000000000635
300.000000000632
300.00000000063
300.000000000628
300.000000000626
300.000000000624
300.000000000623
300.000000000622
300.000000000622
300.000000000621
300.000000000621
300.000000000621
300.000000000621
300.000000000621
300.000000000622
300.000000000623
300.000000000624
300.000000000626
300.000000000628
300.00000000063
300.000000000632
300.000000000636
300.000000000639
300.000000000643
300.000000000648
300.000000000653
300.000000000659
300.000000000666
300.000000000674
300.000000000682
300.000000000689
300.00000000069
300.000000000662
300.000000000581
300.00000000053
300.00000000054
300.000000000588
300.000000000666
300.000000000695
300.000000000697
300.000000000691
300.000000000682
300.000000000674
300.000000000667
300.00000000066
300.000000000654
300.000000000649
300.000000000644
300.00000000064
300.000000000637
300.000000000634
300.000000000631
300.000000000629
300.000000000626
300.000000000625
300.000000000623
300.000000000622
300.000000000621
300.000000000621
300.00000000062
300.00000000062
300.00000000062
300.00000000062
300.00000000062
300.000000000621
300.000000000622
300.000000000623
300.000000000625
300.000000000627
300.000000000629
300.000000000631
300.000000000634
300.000000000638
300.000000000642
300.000000000647
300.000000000652
300.000000000658
300.000000000665
300.000000000673
300.000000000682
300.00000000069
300.000000000692
300.000000000665
300.000000000586
300.000000000535
300.000000000545
300.000000000594
300.000000000669
300.000000000697
300.000000000697
300.00000000069
300.000000000681
300.000000000673
300.000000000665
300.000000000658
300.000000000652
300.000000000647
300.000000000642
300.000000000638
300.000000000635
300.000000000632
300.000000000629
300.000000000627
300.000000000625
300.000000000624
300.000000000622
300.000000000621
300.00000000062
300.000000000619
300.000000000619
300.000000000619
300.000000000619
300.000000000619
300.000000000619
300.00000000062
300.000000000621
300.000000000622
300.000000000623
300.000000000625
300.000000000627
300.00000000063