/*--------------------------------*- C++ -*----------------------------------*\
  =========                 |
  \\      /  F ield         | OpenFOAM: The Open Source CFD Toolbox
   \\    /   O peration     | Website:  https://openfoam.org
    \\  /    A nd           | Version:  10
     \\/     M anipulation  |
\*---------------------------------------------------------------------------*/
FoamFile
{
    format      ascii;
    class       volVectorField;
    location    "6";
    object      U;
}
// * * * * * * * * * * * * * * * * * * * * * * * * * * * * * * * * * * * * * //

dimensions      [0 1 -1 0 0 0 0];

internalField   nonuniform List<vector> 
2500
(
(-1.50301962632889e-06 -3.01194043765314e-06 5.51626424122495e-25)
(-3.61041039054126e-06 -4.01783509385561e-06 5.05158740861039e-24)
(-3.45096444124765e-06 -4.29759227289075e-06 7.65641704803454e-25)
(-2.67864293655258e-06 -4.39438177365506e-06 3.9052661828302e-25)
(-1.80282242355539e-06 -4.38413800020918e-06 2.52556867610917e-25)
(-1.18364246367863e-06 -4.35306282813993e-06 -5.90659868609093e-25)
(-7.62886918312269e-07 -4.32216972353871e-06 -5.08161822635259e-26)
(-4.98363630673589e-07 -4.29950295703573e-06 -5.12395967752367e-26)
(-3.3034112967341e-07 -4.28420619417701e-06 -2.56201932804661e-25)
(-2.22882619499615e-07 -4.27462290343784e-06 5.65796141042844e-24)
(-1.52589712761264e-07 -4.26897185584013e-06 2.67367246454103e-24)
(-1.04976493153147e-07 -4.26576043182797e-06 5.94116598256657e-24)
(-7.16236882858915e-08 -4.26398508957329e-06 6.36605946606811e-24)
(-4.73998305812836e-08 -4.26301578746722e-06 2.06890870283462e-24)
(-2.92405676929453e-08 -4.26247535184515e-06 4.59809111670154e-24)
(-1.52749890001211e-08 -4.26216861183471e-06 1.60468419094601e-24)
(-4.31893426884407e-09 -4.26198638340157e-06 7.07051119924404e-24)
(4.39929683857772e-09 -4.26188140850801e-06 6.57232317600462e-24)
(1.14172394283325e-08 -4.26181586296483e-06 1.45464655002387e-24)
(1.71219333162503e-08 -4.26177882434528e-06 5.56327126766398e-24)
(2.18016556523095e-08 -4.26175645524926e-06 5.59291660481195e-25)
(2.56840019934882e-08 -4.26175243085291e-06 -1.36131665196828e-25)
(2.89580960477446e-08 -4.26175458775729e-06 6.09172492050358e-24)
(3.17837413806178e-08 -4.26176221954264e-06 7.10729353221433e-25)
(3.42969447508257e-08 -4.26177570795878e-06 4.42894961339487e-26)
(3.66336741012796e-08 -4.26179265267218e-06 5.79044089076803e-24)
(3.8923334357785e-08 -4.26181924566595e-06 1.87305051854188e-25)
(4.12878850767239e-08 -4.26185012288358e-06 1.3834598878273e-24)
(4.38695407771809e-08 -4.26188624274636e-06 4.4618099175694e-24)
(4.6818231917154e-08 -4.26193274323597e-06 -1.8837599840899e-25)
(5.03105339305123e-08 -4.26198448105881e-06 4.59664099930197e-25)
(5.457131480132e-08 -4.26205932467397e-06 -8.20610595644601e-25)
(5.98686878241285e-08 -4.26216038093262e-06 9.56270622219808e-25)
(6.65737443024922e-08 -4.26229752408794e-06 1.02215845195415e-24)
(7.52165673518362e-08 -4.2625108332215e-06 -1.68252667164238e-25)
(8.65729257320485e-08 -4.26285248262182e-06 5.269651173473e-24)
(1.01828984286063e-07 -4.26343211602525e-06 -3.63385032666888e-24)
(1.22863406464256e-07 -4.26444980323792e-06 -6.18522060670433e-25)
(1.52732384548033e-07 -4.26627819552292e-06 -2.54755542500345e-26)
(1.96585312999588e-07 -4.26954157598887e-06 -3.22957318249497e-24)
(2.62814995358033e-07 -4.27520949427706e-06 -7.91704286522632e-24)
(3.65921790306973e-07 -4.28474116661845e-06 -7.83730811656048e-24)
(5.29171985417419e-07 -4.29988324526543e-06 -3.97176497655633e-24)
(7.88851414517054e-07 -4.3223649135946e-06 -5.43291526878297e-24)
(1.20532965364075e-06 -4.3532836976493e-06 -6.52771147895322e-24)
(1.82420941743295e-06 -4.38520166611605e-06 -4.34168990006734e-24)
(2.70884827129548e-06 -4.39713502323996e-06 -7.39707345165078e-24)
(3.50354600380912e-06 -4.29972056544896e-06 -7.88242084435554e-24)
(3.66400796757182e-06 -4.01040307603296e-06 -3.71361996240856e-24)
(1.51749770201271e-06 -3.00415015001326e-06 -4.44393882031643e-24)
(-1.74389983125169e-06 -3.9157237173902e-06 3.70500097234323e-25)
(-5.94426853125976e-06 -6.17468142454541e-06 8.23819510868527e-26)
(-5.98881172795433e-06 -7.54128586578452e-06 7.74396980979538e-25)
(-4.8520566745892e-06 -7.95596540799947e-06 5.12681243420302e-25)
(-3.39984244624138e-06 -7.85870378046119e-06 -8.78565558356992e-25)
(-2.32255820576915e-06 -7.63757754880554e-06 -2.72623959928107e-24)
(-1.56577349121718e-06 -7.44662868289285e-06 -4.11652236791364e-25)
(-1.0728855903148e-06 -7.31223084676421e-06 -4.47122217693306e-25)
(-7.49076961540641e-07 -7.22572914502321e-06 -2.70521547097501e-24)
(-5.33233838266454e-07 -7.17212411650115e-06 7.39536969274296e-25)
(-3.85253291070165e-07 -7.13966706697473e-06 5.4680406053615e-24)
(-2.79865678256153e-07 -7.12005519719512e-06 5.36241978786615e-24)
(-2.02185467400596e-07 -7.10805782326131e-06 2.06541767301386e-24)
(-1.43011967853989e-07 -7.10050983468693e-06 3.64142358401953e-24)
(-9.66910489748291e-08 -7.09556464713772e-06 1.32272374088029e-24)
(-5.96548303811512e-08 -7.09217891528681e-06 1.75691299984246e-24)
(-2.95463193946237e-08 -7.08975046426625e-06 4.3171284828555e-24)
(-4.75028316176938e-09 -7.08796690342357e-06 2.35748181541647e-24)
(1.58902679471945e-08 -7.08661261434436e-06 1.24954513503441e-24)
(3.32405201459454e-08 -7.08557349165828e-06 6.2657632413588e-25)
(4.79719274180184e-08 -7.08477544877823e-06 -7.17871175894349e-26)
(6.06302015946657e-08 -7.08417872382629e-06 -2.42527026683899e-24)
(7.16818287550996e-08 -7.08373293823053e-06 2.85978692182247e-24)
(8.15211275375808e-08 -7.08342623551507e-06 5.91901514558783e-25)
(9.05018018558321e-08 -7.08324456974438e-06 -1.79617225202379e-24)
(9.89668161535538e-08 -7.08318472733225e-06 2.47344166856399e-24)
(1.07254206976907e-07 -7.0832355564297e-06 -1.23922183166726e-24)
(1.15692294416977e-07 -7.08341736398512e-06 3.39788271104475e-24)
(1.24636219003063e-07 -7.08372367130414e-06 2.93076843300987e-24)
(1.34477160974558e-07 -7.08419012797796e-06 -1.97738789627752e-24)
(1.45652610362941e-07 -7.08483544477478e-06 1.88270429024721e-24)
(1.58699689202884e-07 -7.08572146486019e-06 -2.54595851864168e-24)
(1.74271859957943e-07 -7.08691533073715e-06 3.33574863289474e-24)
(1.93205854740358e-07 -7.08852761181992e-06 3.31648053805942e-24)
(2.16652590269137e-07 -7.09077587711221e-06 -2.11142107718629e-24)
(2.46230254064594e-07 -7.09400073262299e-06 1.72565663657597e-24)
(2.84303869353856e-07 -7.09879782122901e-06 -2.7636412151778e-24)
(3.34459070530876e-07 -7.10622326903722e-06 -5.1474449449209e-25)
(4.0235156015567e-07 -7.11812221733147e-06 8.09067568125922e-25)
(4.97239400681914e-07 -7.13766094791242e-06 -7.37044619298152e-24)
(6.33981514740728e-07 -7.17002307248572e-06 -6.7568649201775e-24)
(8.37946661082609e-07 -7.22345324687584e-06 -6.61995224912751e-24)
(1.14908610433113e-06 -7.30971789104652e-06 -8.83526797099871e-24)
(1.62923957442216e-06 -7.4442061034704e-06 -6.64405202706495e-24)
(2.3744513316907e-06 -7.6368505023676e-06 -7.05482068917669e-24)
(3.44759457244161e-06 -7.86386759809134e-06 -9.47685882663098e-24)
(4.9129743552723e-06 -7.97100005870278e-06 -6.85412072028964e-24)
(6.0903719537007e-06 -7.55227576994023e-06 -6.78291925008013e-24)
(6.05484842773569e-06 -6.14489744545072e-06 -8.13141893988606e-24)
(1.77800672121366e-06 -3.8676578835152e-06 -3.82363113597445e-24)
(-6.96777747068917e-07 1.83057613239672e-07 -1.84047644028276e-25)
(-5.11397849873486e-06 -2.03087813034457e-06 -5.51375831305997e-24)
(-5.46064505167219e-06 -4.44588052256995e-06 2.04730706874413e-25)
(-4.71107315926377e-06 -5.19377754706133e-06 2.6294158293058e-26)
(-3.49341497485469e-06 -5.0337550424495e-06 -5.06850417220366e-24)
(-2.52953202581504e-06 -4.63369775992846e-06 -6.20302317938208e-24)
(-1.80959043851852e-06 -4.28864236961423e-06 -7.39205610178463e-25)
(-1.31394847372645e-06 -4.04649595768592e-06 -7.85491753138313e-25)
(-9.6986181140281e-07 -3.89109541012601e-06 -6.43407423583351e-24)
(-7.27072064166128e-07 -3.79415792592934e-06 -4.85458769134778e-24)
(-5.51235067656783e-07 -3.734154926958e-06 7.86762277302465e-24)
(-4.19584695198578e-07 -3.69652281649233e-06 3.05651729049657e-24)
(-3.18237834320261e-07 -3.67232916869212e-06 -3.10810570620714e-24)
(-2.38198814852761e-07 -3.65622742299271e-06 5.29303258623129e-24)
(-1.73658548748745e-07 -3.6450756519355e-06 -4.8465755023934e-24)
(-1.20745666934271e-07 -3.63705260887008e-06 7.85751854649766e-25)
(-7.67789481738192e-08 -3.63107694305659e-06 1.56894325159569e-24)
(-3.9833475566657e-08 -3.62651441292778e-06 -2.87142497464067e-24)
(-8.47280421340098e-09 -3.62297256992868e-06 1.10321809132304e-25)
(1.8402336949558e-08 -3.62019408945302e-06 -4.75532720825005e-24)
(4.167484484932e-08 -3.6180230040685e-06 -1.03602697824531e-24)
(6.20815339720825e-08 -3.61633912323042e-06 -6.02278360698591e-24)
(8.02483613382341e-08 -3.61507436512791e-06 3.64901886286836e-25)
(9.67239424617173e-08 -3.61416960155895e-06 2.10281585227429e-26)
(1.12008378705892e-07 -3.61360924793111e-06 -5.29620929139557e-24)
(1.26587819375927e-07 -3.61336853911879e-06 -1.707306618691e-25)
(1.40929849697885e-07 -3.61344264512487e-06 -4.22086104576723e-24)
(1.5550256489433e-07 -3.61385002822973e-06 6.01064567256448e-24)
(1.70810502312784e-07 -3.61461944703499e-06 8.38702211617379e-25)
(1.87392000961036e-07 -3.61578977681034e-06 -4.92918493776321e-24)
(2.05858418283677e-07 -3.61744454509331e-06 4.51274916028492e-24)
(2.26932698069589e-07 -3.6196815468083e-06 -5.13346334122134e-24)
(2.51484065207675e-07 -3.62266615291134e-06 6.44339709442758e-24)
(2.80595397123816e-07 -3.62664858327258e-06 6.27033679308407e-24)
(3.15690043066434e-07 -3.63204464622222e-06 -4.32987046845139e-24)
(3.58698009056748e-07 -3.63949949546072e-06 -3.92929753554698e-25)
(4.12311471787067e-07 -3.65009516821294e-06 -8.1823714633666e-25)
(4.80412531677922e-07 -3.66567690226447e-06 1.16216202137359e-25)
(5.68813378260172e-07 -3.68939051157192e-06 3.56326518992713e-24)
(6.86567338296389e-07 -3.72662353750517e-06 -9.54062861486971e-24)
(8.47534522497655e-07 -3.78631773433929e-06 -4.38194180805043e-24)
(1.07465889565225e-06 -3.88303558980678e-06 -4.2581972246677e-24)
(1.40219547231174e-06 -4.0384547407355e-06 -1.08862596787186e-23)
(1.88131279783108e-06 -4.28159889930437e-06 -4.49458023040784e-24)
(2.5859535280352e-06 -4.63086110274393e-06 -4.79565709659793e-24)
(3.54215865419101e-06 -5.0428470690486e-06 -1.1386908717125e-23)
(4.77017358555969e-06 -5.2223476010366e-06 -4.53649397973438e-24)
(5.56154264030184e-06 -4.47001281667653e-06 -4.50677546513594e-24)
(5.24245353591801e-06 -1.98651348718736e-06 -1.0639788046972e-23)
(7.49554001094224e-07 2.79082838607169e-07 -2.3230974775396e-24)
(2.69271073339537e-08 3.92703464544149e-06 -2.15007454397998e-26)
(-3.05261305545271e-06 2.35857420708386e-06 -4.63838749418633e-24)
(-3.62433901889511e-06 -9.96326052307234e-07 3.97049117350706e-25)
(-3.48557625810196e-06 -2.177230796761e-06 2.01084187020478e-25)
(-2.83541005524549e-06 -2.12375794015089e-06 -2.1632937903334e-24)
(-2.23810700624252e-06 -1.68390186868368e-06 -2.77751590090603e-24)
(-1.73039558067403e-06 -1.27482680453279e-06 -2.23046073707318e-25)
(-1.34390969459402e-06 -9.7621785736364e-07 -2.32372056193177e-25)
(-1.05079590710833e-06 -7.78725118159449e-07 -3.02234413128651e-24)
(-8.27250411507746e-07 -6.51472583595314e-07 -4.89066952103322e-24)
(-6.54650026886568e-07 -5.69638804048929e-07 4.08044242698959e-24)
(-5.18669707549578e-07 -5.16098783944779e-07 1.75245730389851e-25)
(-4.09833310334746e-07 -4.80132619220896e-07 -2.94752531468657e-24)
(-3.21310290919743e-07 -4.55185068537543e-07 2.17564899187843e-24)
(-2.48299551627471e-07 -4.37274440312271e-07 -3.86319155917578e-24)
(-1.87357510735396e-07 -4.24012281965279e-07 5.31442338886973e-25)
(-1.3593387389687e-07 -4.13915243397713e-07 -1.04054298103834e-24)
(-9.21132544412562e-08 -4.06075126573686e-07 -2.19863064489674e-24)
(-5.44148869429745e-08 -3.99911924486238e-07 2.57190395166384e-25)
(-2.16640293817066e-08 -3.95030757694801e-07 -3.71837908116621e-24)
(7.10346081577852e-09 -3.91178575937765e-07 -4.16328229674696e-25)
(3.26939439976636e-08 -3.88172661315879e-07 -2.64035639639482e-24)
(5.58132222705686e-08 -3.85905031403034e-07 -1.84412603111729e-24)
(7.70829834077058e-08 -3.84277990499813e-07 2.22104816051959e-25)
(9.70754639045106e-08 -3.83255074938215e-07 -2.04234336532217e-24)
(1.16347612736949e-07 -3.82796053409992e-07 -1.48257429911837e-24)
(1.35436125561995e-07 -3.82920975208938e-07 -1.68429345810106e-24)
(1.54878041540906e-07 -3.83634684311586e-07 2.63401614448765e-24)
(1.7525015612049e-07 -3.84990990885217e-07 -1.74911355647012e-24)
(1.97170077651513e-07 -3.87058114476763e-07 -2.41152022557932e-24)
(2.21324792659929e-07 -3.89964602865983e-07 1.60678166639461e-24)
(2.4851576881123e-07 -3.93877307544438e-07 -2.6720607269927e-24)
(2.79691377428035e-07 -3.99039581131478e-07 2.9920233986139e-24)
(3.16014469740311e-07 -4.0585528443563e-07 2.99110701739863e-24)
(3.58957287212189e-07 -4.14924322339298e-07 -2.53718452468211e-24)
(4.10433802723905e-07 -4.27159926746403e-07 -1.65885122315995e-24)
(4.72988186136445e-07 -4.44050780764357e-07 1.59993651293163e-24)
(5.50068043390381e-07 -4.68007278991718e-07 2.32695366398334e-25)
(6.46456708042071e-07 -5.03017139916197e-07 1.42991988165245e-24)
(7.69014178436643e-07 -5.55693122066678e-07 -4.54146978445179e-24)
(9.27176459203395e-07 -6.36798366798285e-07 -5.42103864510909e-25)
(1.13545867436005e-06 -7.63541137925412e-07 -3.64754159798656e-25)
(1.41239137206097e-06 -9.61073932258607e-07 -5.17279305704e-24)
(1.78263438037816e-06 -1.26140448855966e-06 1.06133195676514e-25)
(2.27479075330537e-06 -1.67717726714748e-06 -4.04968048518799e-25)
(2.86237799915108e-06 -2.13518366278673e-06 -5.90602285361788e-24)
(3.51753843322794e-06 -2.21888833673885e-06 -5.36931241844293e-25)
(3.68927181802037e-06 -1.03920854946635e-06 -3.68709938927437e-25)
(3.15842033075826e-06 2.40400655687127e-06 -5.54272516750034e-24)
(2.87371072971721e-08 4.04691988112125e-06 6.1693360190151e-25)
(3.23152343541914e-07 6.29276156107373e-06 5.86948940386727e-25)
(-1.08853918688674e-06 5.33961807944289e-06 -2.56053001797439e-25)
(-1.77348856239202e-06 1.38890037068522e-06 1.06366081601243e-24)
(-2.13079059403711e-06 -2.11536976801993e-07 5.41168385522997e-25)
(-2.02380899101698e-06 -3.71266205033474e-07 2.66844491746501e-25)
(-1.79748661872246e-06 -5.4003452301552e-09 -4.1658261769551e-25)
(-1.52167802288078e-06 3.90605175270104e-07 3.43381889889019e-25)
(-1.26628660127024e-06 7.00497555761572e-07 3.76128968042203e-25)
(-1.04473978928842e-06 9.15957186777103e-07 -3.92815495765452e-25)
(-8.58340189846389e-07 1.06117288444239e-06 -7.07655285732052e-25)
(-7.04075731124932e-07 1.15872121150769e-06 2.25590825006e-24)
(-5.7632043483236e-07 1.22520885763981e-06 1.22271493615632e-24)
(-4.70388989501863e-07 1.27156417870965e-06 -4.54975262745852e-26)
(-3.82010958511635e-07 1.30476539079942e-06 1.26901576249318e-24)
(-3.07742631750881e-07 1.32921538382101e-06 -5.05362918265979e-25)
(-2.44837883327729e-07 1.34769007975521e-06 1.08178284951855e-24)
(-1.91109972476224e-07 1.36195521909905e-06 9.29460151685719e-25)
(-1.44830416213371e-07 1.3731472558821e-06 5.59241404011136e-25)
(-1.04595816386019e-07 1.38202148389397e-06 1.18167187023379e-24)
(-6.92702108604047e-08 1.389082960463e-06 -2.65283541699691e-25)
(-3.79028687751983e-08 1.39467337987658e-06 6.86953054056022e-25)
(-9.68187903598717e-09 1.39903549437623e-06 -1.4189535712758e-25)
(1.61094325897517e-08 1.40233613876819e-06 4.54188428823455e-25)
(4.01131389856153e-08 1.40468483912422e-06 7.75788306820135e-25)
(6.29227800424089e-08 1.40615325235052e-06 1.31356859931674e-25)
(8.51053700199151e-08 1.40677792601901e-06 3.36986927384717e-25)
(1.07216022105539e-07 1.40654887358995e-06 -3.79971933772345e-26)
(1.2982148170781e-07 1.40544481890162e-06 9.68609738441232e-25)
(1.5351106222879e-07 1.40341093694762e-06 -7.01481443004497e-26)
(1.78915610642681e-07 1.40032341886559e-06 -7.08866988754599e-25)
(2.06737714012246e-07 1.3960293052354e-06 2.07367556256097e-25)
(2.37786468318994e-07 1.39029195641603e-06 -1.31445628001657e-24)
(2.72996107885486e-07 1.38278046743913e-06 7.31523618875906e-25)
(3.13493815548037e-07 1.37297082559482e-06 8.89942421603016e-25)
(3.60667847290489e-07 1.36010733453498e-06 -7.26607105182843e-25)
(4.16234716321046e-07 1.343039952456e-06 -2.55124884397541e-25)
(4.82365257486863e-07 1.31999207082387e-06 3.1921503516087e-25)
(5.61792466925748e-07 1.28819482828233e-06 -1.15034707693348e-25)
(6.57922955693689e-07 1.24321801337301e-06 3.52113630431722e-25)
(7.75019877708802e-07 1.17804316816035e-06 -2.30850588591115e-24)
(9.17681498224872e-07 1.08168642718498e-06 -6.2400654978477e-25)
(1.09165890144822e-06 9.37409241861286e-07 -4.49672418580413e-25)
(1.29976722359105e-06 7.22179114456235e-07 -2.35530540594e-24)
(1.54128238552747e-06 4.1035795294743e-07 -5.50209426656343e-25)
(1.80289089931196e-06 6.03574655880461e-09 -7.24527344433058e-25)
(2.01835358651753e-06 -3.82837352806642e-07 -3.23262554183274e-24)
(2.12463003885841e-06 -2.62616544179624e-07 -4.40638610581126e-25)
(1.78829708646802e-06 1.32790142359421e-06 -5.37040607328787e-25)
(1.14587867405634e-06 5.37848969028937e-06 -3.33124215221369e-24)
(-2.83028508553321e-07 6.41944809371943e-06 1.23666712234064e-25)
(3.69893889630887e-07 7.22058617363191e-06 9.34979236686084e-25)
(2.2251277790512e-07 6.66842949199004e-06 1.79690953138913e-24)
(-4.77586364226602e-07 2.54043875900504e-06 1.40426508915939e-24)
(-1.09852627647662e-06 6.56911342920914e-07 6.35974080762378e-25)
(-1.35262889932518e-06 2.92001781760176e-07 5.60743498832752e-25)
(-1.38941343056495e-06 5.46137234326293e-07 6.66743505626308e-25)
(-1.2927208711125e-06 8.9440968327705e-07 5.95169381740581e-25)
(-1.14697554886625e-06 1.19095794517683e-06 6.51914620462929e-25)
(-9.91559998163177e-07 1.40896255502074e-06 8.88111624721019e-25)
(-8.44188632139359e-07 1.56280725030467e-06 1.08935399584037e-24)
(-7.12992417939096e-07 1.67052482610967e-06 1.34182863153963e-24)
(-5.98930031076884e-07 1.74668288616604e-06 1.626953375187e-24)
(-5.01182769763291e-07 1.80149762714309e-06 1.39234708974914e-24)
(-4.17715407559039e-07 1.84180812412181e-06 9.98829480743459e-25)
(-3.46367701752383e-07 1.87211262490828e-06 1.17554997578833e-24)
(-2.85143899633009e-07 1.89538332137104e-06 1.38914874459389e-24)
(-2.32291673947204e-07 1.91355221757503e-06 1.74333217631404e-24)
(-1.86332186310719e-07 1.92792665385344e-06 1.91472404484656e-24)
(-1.4602654262128e-07 1.93938484126231e-06 1.67961679096701e-24)
(-1.1033450657561e-07 1.94852733266243e-06 1.52102416853809e-24)
(-7.83592139632657e-08 1.95577991048408e-06 1.25010284275962e-24)
(-4.93277483383082e-08 1.96143101443218e-06 1.01071709252861e-24)
(-2.25524026690598e-08 1.96569943232327e-06 1.32122758584148e-24)
(2.59046926845568e-09 1.96871047783523e-06 1.04950493879951e-24)
(2.66840043967108e-08 1.9705605551229e-06 1.14126578336851e-24)
(5.02823073053154e-08 1.9712831568235e-06 1.34037522603625e-24)
(7.3931397526591e-08 1.97089008658029e-06 7.22194065978912e-25)
(9.81888823234469e-08 1.96933843980742e-06 3.12163939539597e-25)
(1.2362276112515e-07 1.9665524056711e-06 5.9973571047616e-25)
(1.5085016892272e-07 1.96239741104664e-06 1.97060601663692e-25)
(1.80553399868439e-07 1.9566663332212e-06 -2.22552009507583e-25)
(2.13491415590376e-07 1.94907626083285e-06 -5.58330983492393e-25)
(2.50538649877446e-07 1.93920859270454e-06 -3.39067840689244e-25)
(2.92732939791183e-07 1.92646071657294e-06 -1.59970458921522e-25)
(3.41296695748819e-07 1.90994236885604e-06 1.50085142848959e-25)
(3.97677685307438e-07 1.88834205167993e-06 4.31641615503272e-25)
(4.63610353037027e-07 1.85971084492661e-06 -2.82285427109666e-25)
(5.41060944844803e-07 1.82110421159037e-06 -3.65739345031916e-25)
(6.32128331119513e-07 1.76798704665729e-06 -1.05817020784052e-25)
(7.38818079974919e-07 1.69349361120077e-06 -3.0784104683452e-25)
(8.61810299611392e-07 1.58734923518782e-06 -7.0484525067174e-25)
(1.00018712784216e-06 1.43486506384703e-06 -5.8366488990782e-25)
(1.14547072657337e-06 1.21751110179411e-06 -3.07028089421098e-25)
(1.28020042367251e-06 9.19307509435301e-07 -5.60954964751987e-25)
(1.3645299096668e-06 5.62230828366555e-07 -6.03770181627315e-25)
(1.31650126197089e-06 2.82342616578664e-07 -5.60393451193586e-25)
(1.05718759047642e-06 6.01384277516258e-07 -5.96839326284092e-25)
(4.46714661606407e-07 2.46655346231978e-06 -5.17061375022414e-25)
(-2.18028321414844e-07 6.69729846898599e-06 -3.59620688339861e-25)
(-3.52921260178262e-07 7.34332489985334e-06 -5.28208030269847e-26)
(3.34827100710839e-07 7.08844594508083e-06 9.16250649504913e-25)
(8.51371649792834e-07 6.76557198378098e-06 2.72422994280111e-24)
(2.04333632328171e-07 2.77463572151263e-06 1.29533536026673e-24)
(-4.75079151827307e-07 7.55137319541585e-07 5.15071629678429e-25)
(-8.97206204411336e-07 2.38115286584048e-07 4.68911422226613e-25)
(-1.0752101244544e-06 3.84136565663155e-07 8.58981262045969e-25)
(-1.0904519675072e-06 6.75939668178522e-07 5.36618177685619e-25)
(-1.02148485159905e-06 9.48641716302911e-07 5.97303671100526e-25)
(-9.17849401456882e-07 1.16077539538591e-06 1.15214112700368e-24)
(-8.04517450341387e-07 1.31718518122028e-06 1.66233142016283e-24)
(-6.95753320498256e-07 1.43090714714207e-06 8.07061498091214e-25)
(-5.96584210065243e-07 1.51395073472742e-06 1.75143174136489e-24)
(-5.08853772602605e-07 1.57537897466e-06 1.95697309136449e-24)
(-4.32237679201763e-07 1.62157814475971e-06 8.1027567888274e-25)
(-3.65650301296234e-07 1.65692736486711e-06 1.76283813142767e-24)
(-3.07775907891798e-07 1.68443244482696e-06 1.26355563710169e-24)
(-2.57300829789351e-07 1.70612639730136e-06 1.91886663587514e-24)
(-2.13025191786296e-07 1.72340834396449e-06 2.17015324621228e-24)
(-1.73889924535551e-07 1.73723967772906e-06 1.56104229942572e-24)
(-1.3897196193255e-07 1.74830696290515e-06 2.11186107956956e-24)
(-1.07464512551105e-07 1.75708756861231e-06 1.20145908505854e-24)
(-7.86501948352347e-08 1.76392573052214e-06 1.21627405459397e-24)
(-5.18864139249483e-08 1.76906022051432e-06 1.65358375182796e-24)
(-2.65830570990454e-08 1.77265271324501e-06 9.57292730330748e-25)
(-2.18348189375939e-09 1.77481288975574e-06 1.2796795723458e-24)
(2.18403935199384e-08 1.77558536356098e-06 1.60002174970046e-24)
(4.60086939443655e-08 1.77497801644247e-06 8.56348688899099e-25)
(7.085065837946e-08 1.77294117902797e-06 8.49129187464262e-26)
(9.69156142582943e-08 1.7693803463762e-06 1.00025861761831e-24)
(1.24777452840249e-07 1.7641457422306e-06 5.15234640559182e-25)
(1.55072079391688e-07 1.7569939844107e-06 -2.85730576431911e-25)
(1.88503921040831e-07 1.74759151172686e-06 -1.65865577077794e-25)
(2.25862575952199e-07 1.73546947103573e-06 -6.10432698811819e-25)
(2.68061554541185e-07 1.71994668012835e-06 -4.70717345955871e-25)
(3.16133270653289e-07 1.70003953899045e-06 4.49070722620953e-25)
(3.71243992621614e-07 1.67435906436905e-06 7.32679465446622e-25)
(4.34686951534505e-07 1.64086398713164e-06 -6.5342897258411e-25)
(5.07734923634651e-07 1.59656183061276e-06 -4.04389869067427e-25)
(5.91399597564828e-07 1.5370655595425e-06 -2.35030242016815e-25)
(6.85956192701839e-07 1.45595512487714e-06 4.7393004962043e-25)
(7.89390486535329e-07 1.34412805687197e-06 -8.1640997242955e-25)
(8.96641188658194e-07 1.18948732446931e-06 -8.61840058820634e-25)
(9.92982149034591e-07 9.7851564240762e-07 3.78250119852838e-25)
(1.05346763353441e-06 7.04771037663098e-07 -7.64920211042906e-25)
(1.02772571611207e-06 4.04420668173159e-07 -7.8212607700595e-25)
(8.38942485199771e-07 2.31349501790986e-07 3.52803428430632e-25)
(4.09226765029532e-07 6.98241829963134e-07 -9.0226041647906e-25)
(-2.6614045703769e-07 2.69201532118888e-06 -7.61354754111912e-25)
(-8.87415467423068e-07 6.78121539814181e-06 8.70085666185928e-25)
(-3.37363597128534e-07 7.19916437813596e-06 -2.67036108381086e-25)
(2.96129510934136e-07 6.43691691366534e-06 6.53169044894049e-25)
(1.00221847063636e-06 6.27725274708241e-06 2.106817294875e-24)
(4.46771299852399e-07 2.57956226205985e-06 9.09788503859443e-25)
(-1.67847441360445e-07 5.28105225827839e-07 3.23576371185125e-25)
(-6.22171658142612e-07 -8.66735243652596e-08 8.14763608193005e-26)
(-8.51614269491882e-07 -3.06571052674317e-08 7.2844940143404e-25)
(-9.25171250643935e-07 2.07011080897186e-07 3.80320692830938e-25)
(-9.04477775611057e-07 4.52063816045359e-07 4.27568294743973e-25)
(-8.38324410284674e-07 6.53436676946115e-07 9.61603867269905e-25)
(-7.52463078843202e-07 8.08056546560382e-07 1.15489712221854e-24)
(-6.63444864647155e-07 9.24424694568553e-07 3.34613854602054e-25)
(-5.78361955009359e-07 1.01190713987314e-06 1.02526723454736e-24)
(-5.00692285308989e-07 1.07821958702092e-06 1.35946887512622e-24)
(-4.31324873134542e-07 1.12909703492908e-06 4.27930832652891e-25)
(-3.7002051842919e-07 1.16866502047726e-06 1.23227120375373e-24)
(-3.16044461843039e-07 1.19982122699573e-06 8.55723040458282e-25)
(-2.68482677483545e-07 1.2246251252342e-06 1.24108367489863e-24)
(-2.26407153056064e-07 1.24450201997892e-06 1.62706396819739e-24)
(-1.88943262682036e-07 1.26048655910236e-06 1.08202101623157e-24)
(-1.55297972734623e-07 1.27330240604083e-06 1.49515604672208e-24)
(-1.24750894971012e-07 1.28347519788571e-06 8.48276724323111e-25)
(-9.66537270245299e-08 1.29138920676818e-06 9.71267190271533e-25)
(-7.04156929380953e-08 1.29730031905645e-06 1.00724071812702e-24)
(-4.54824706999318e-08 1.30141132662313e-06 6.51015310755897e-25)
(-2.13339824423754e-08 1.30382581150172e-06 1.00214491479425e-24)
(2.52532336632527e-09 1.30460240607311e-06 1.08466044579756e-24)
(2.65865528334982e-08 1.3037480280024e-06 6.73488535282852e-25)
(5.13503917534729e-08 1.30121510714658e-06 -9.09640496205177e-26)
(7.73293067135001e-08 1.29689047101123e-06 5.74916391453417e-25)
(1.05060920005488e-07 1.29059595996509e-06 4.84299772514938e-25)
(1.35128058655596e-07 1.28207475272879e-06 -2.80024018450058e-25)
(1.68165787676965e-07 1.27095770778346e-06 3.53274414877972e-26)
(2.04872256678699e-07 1.2567259909804e-06 -5.68143104368821e-25)
(2.46027503372929e-07 1.23864665441298e-06 -4.89225046933553e-25)
(2.92484100631001e-07 1.21569684123583e-06 4.56078352449229e-25)
(3.45133513778457e-07 1.18644207231217e-06 5.06862920007621e-25)
(4.04856690101202e-07 1.14883814712966e-06 -3.42693486324637e-25)
(4.72346291437062e-07 1.09998229247596e-06 -2.90254863760334e-25)
(5.47758278203426e-07 1.03576729564051e-06 -2.27561575768295e-25)
(6.30142459366769e-07 9.50435764754268e-07 9.42766922306674e-25)
(7.1584234972372e-07 8.3625668171828e-07 -3.85807811255225e-25)
(7.97685544856026e-07 6.83793954434919e-07 -3.73791144497496e-25)
(8.58623113966412e-07 4.84156070545802e-07 8.40571605006437e-25)
(8.72820979502445e-07 2.38819091559307e-07 -3.19304692439332e-25)
(7.90528792291883e-07 -6.81924596199607e-09 -3.13866377041634e-25)
(5.51549149845421e-07 -9.05032804283815e-08 1.02192117141412e-24)
(8.937662432924e-08 4.70874191407739e-07 -3.93158904422691e-25)
(-5.23440549031078e-07 2.49001634233889e-06 -2.61764949637714e-25)
(-1.06050054777243e-06 6.27608984516408e-06 1.72599512576932e-24)
(-3.09886837425073e-07 6.52872568010078e-06 -1.2886973161403e-26)
(2.64581083869889e-07 5.68065054749497e-06 4.24536167382839e-25)
(9.03415925415613e-07 5.68096073926511e-06 1.77579326068534e-24)
(4.53460089464587e-07 2.30157842044884e-06 5.83481044895623e-25)
(-4.84742569398495e-08 2.70796742102348e-07 2.33769423118999e-25)
(-4.63951702201485e-07 -4.03185414869799e-07 5.22786125265468e-25)
(-6.93978168801924e-07 -4.18251122628186e-07 8.74887118438538e-25)
(-7.91759212949589e-07 -2.29017046428277e-07 2.70919429277093e-25)
(-7.99453581399694e-07 -1.23758762651664e-08 2.92872871504738e-25)
(-7.5962770623737e-07 1.75294453495242e-07 9.17245151945369e-25)
(-6.95347004686226e-07 3.24961225223078e-07 9.35686437093227e-25)
(-6.23073164638836e-07 4.41261468546774e-07 -1.98055399810336e-25)
(-5.50645143818054e-07 5.31088891435931e-07 5.06703918251169e-25)
(-4.8241251576007e-07 6.00741837900879e-07 1.07683123863963e-24)
(-4.20072245158972e-07 6.55189575272036e-07 -9.768291647703e-26)
(-3.64036047015869e-07 6.98171307794387e-07 9.579893007558e-25)
(-3.14048247161761e-07 7.32420604414695e-07 5.03202105206318e-25)
(-2.69543266057309e-07 7.59921370516526e-07 6.9966063366803e-25)
(-2.29841127228874e-07 7.82104328787241e-07 1.2839269021271e-24)
(-1.94239750971125e-07 8.00015652256387e-07 6.82770931244563e-25)
(-1.62076344244857e-07 8.14410550540537e-07 1.21635604339294e-24)
(-1.32720042482334e-07 8.25854086075347e-07 5.55018724259073e-25)
(-1.05594183176777e-07 8.34737311877341e-07 9.24608486049092e-25)
(-8.01530528255768e-08 8.41360550962443e-07 5.53852533389736e-25)
(-5.58887153510999e-08 8.45923527584129e-07 3.98113215453721e-25)
(-3.23226015875296e-08 8.48555437242623e-07 8.98624517478427e-25)
(-8.98275651722203e-09 8.49309596879117e-07 6.36919808659171e-25)
(1.45905545556163e-08 8.48200544576676e-07 5.71002690371913e-25)
(3.88606114074683e-08 8.45174847962533e-07 -3.31111741223236e-25)
(6.43054659173959e-08 8.40106436288296e-07 2.67736122634671e-25)
(9.14214689740766e-08 8.32807227284074e-07 5.66602816156238e-25)
(1.20740436716717e-07 8.22994969821203e-07 -4.85767727449481e-25)
(1.52826235044366e-07 8.10274040551865e-07 2.24583848577502e-25)
(1.88283485461345e-07 7.94099990476093e-07 -6.87500733763863e-25)
(2.27770587215709e-07 7.73717298091276e-07 -6.71862104397409e-25)
(2.71958578539676e-07 7.4808968623535e-07 6.14010573837508e-25)
(3.21488060659314e-07 7.15777726211686e-07 2.95660723640573e-25)
(3.76892400321185e-07 6.74809078587946e-07 -1.57250706439813e-25)
(4.38379208368789e-07 6.22471947468534e-07 -1.92623455802742e-25)
(5.0546376993252e-07 5.55040984388085e-07 -4.68377769816425e-25)
(5.76379215240455e-07 4.67553935290011e-07 7.2512104301933e-25)
(6.46589064415475e-07 3.53706017054987e-07 -9.23820076267787e-26)
(7.08177524281881e-07 2.06591945122747e-07 -8.82454958805541e-26)
(7.44205281258232e-07 2.12199889101979e-08 8.41092073821921e-25)
(7.3151425197391e-07 -1.94963520857822e-07 -7.21575391976596e-26)