/*--------------------------------*- C++ -*----------------------------------*\
  =========                 |
  \\      /  F ield         | OpenFOAM: The Open Source CFD Toolbox
   \\    /   O peration     | Website:  https://openfoam.org
    \\  /    A nd           | Version:  10
     \\/     M anipulation  |
\*---------------------------------------------------------------------------*/
FoamFile
{
    format      ascii;
    class       volScalarField;
    location    "6";
    object      wallHeatFlux;
}
// * * * * * * * * * * * * * * * * * * * * * * * * * * * * * * * * * * * * * //

dimensions      [1 0 -3 0 0 0 0];

internalField   uniform 0;

boundaryField
{
    back
    {
        type            calculated;
        value           uniform 0;
    }
    bottom
    {
        type            calculated;
        value           nonuniform List<scalar> 
50
(
100.351814038801
102.343221577458
105.930582021992
108.38401274432
109.801840122942
110.573603733462
110.979417366257
111.184950099032
111.284560344555
111.330731776638
111.350892102464
111.359332946009
111.362706112609
111.363927219337
111.364348903067
111.364430694551
111.364480077875
111.364461288097
111.364417428409
111.364402845719
111.364389020668
111.364380470489
111.364373864912
111.364377006981
111.364371453106
111.364367677303
111.364373134701
111.364377922262
111.364388883581
111.364402198585
111.364416892703
111.364447000242
111.364455568622
111.364451438257
111.36441414501
111.364256365899
111.363754203803
111.362293046814
111.358632348174
111.349521602606
111.328196724978
111.280604680341
111.179277996857
110.972774210864
110.568759058097
109.801753906326
108.388158095846
105.923874497891
102.304004362264
100.380258642698
)
;
    }
    left
    {
        type            calculated;
        value           uniform 0;
    }
    front
    {
        type            calculated;
        value           uniform 0;
    }
    right
    {
        type            calculated;
        value           uniform 0;
    }
    top
    {
        type            calculated;
        value           uniform 0;
    }
}


// ************************************************************************* //
