/*--------------------------------*- C++ -*----------------------------------*\
  =========                 |
  \\      /  F ield         | OpenFOAM: The Open Source CFD Toolbox
   \\    /   O peration     | Website:  https://openfoam.org
    \\  /    A nd           | Version:  10
     \\/     M anipulation  |
\*---------------------------------------------------------------------------*/
FoamFile
{
    format      ascii;
    class       volScalarField;
    location    "8.8";
    object      alphat;
}
// * * * * * * * * * * * * * * * * * * * * * * * * * * * * * * * * * * * * * //

dimensions      [1 -1 -1 0 0 0 0];

internalField   nonuniform List<scalar> 
2500
(
5.42720919486671e-15
1.06948325385902e-13
4.59057336928579e-13
8.02631226435758e-13
1.10840476549781e-12
1.36562831771975e-12
1.57066103353389e-12
1.72565179457303e-12
1.83686448560611e-12
1.91269294009168e-12
1.96188136419038e-12
1.99227728678925e-12
2.01019532526169e-12
2.02028570740053e-12
2.0257218409822e-12
2.02852761293692e-12
2.02991685200157e-12
2.03057753902641e-12
2.0308796240786e-12
2.03101246617565e-12
2.03106861605721e-12
2.03109135988996e-12
2.03110010908779e-12
2.03110320442065e-12
2.03110402951924e-12
2.03110369937013e-12
2.03110206107783e-12
2.03109763878248e-12
2.03108637247341e-12
2.0310586356115e-12
2.03099265304085e-12
2.03084105523925e-12
2.03050480117787e-12
2.02978523517501e-12
2.0283010271218e-12
2.0253536976211e-12
2.01972641757015e-12
2.00941086668111e-12
1.99128186557375e-12
1.96078241162428e-12
1.91173729286843e-12
1.83646339164214e-12
1.72635429668609e-12
1.57304775843666e-12
1.37011594379221e-12
1.11497895045617e-12
8.10538240591608e-13
4.66410416896977e-13
1.09840845758031e-13
5.65635284997893e-15
5.39372109473838e-13
2.78784505368029e-11
1.22146524981531e-10
2.13692728299064e-10
2.95243630665714e-10
3.63961663903658e-10
4.18854050836268e-10
4.60455380893261e-10
4.90394507201561e-10
5.1087574781153e-10
5.2420990507861e-10
5.32482071178389e-10
5.37378748909897e-10
5.40148339475243e-10
5.41647231191987e-10
5.42424491642531e-10
5.42811195316563e-10
5.4299600573842e-10
5.43080928033898e-10
5.43118465324665e-10
5.43134417288664e-10
5.43140916909859e-10
5.43143434803776e-10
5.43144334335943e-10
5.43144578785814e-10
5.43144487503177e-10
5.43144017822198e-10
5.43142749598496e-10
5.43139532067679e-10
5.43131648404776e-10
5.43112982646118e-10
5.43070295908319e-10
5.42976044795718e-10
5.42775257918382e-10
5.42362949528475e-10
5.41547788302318e-10
5.3999812785306e-10
5.37169344272584e-10
5.32218167856269e-10
5.23921070773975e-10
5.10628258835353e-10
4.90297376236412e-10
4.60652716383778e-10
4.19496719956212e-10
3.65155999714061e-10
2.96981984021429e-10
2.15773775255218e-10
1.24074128225987e-10
2.86184961747869e-11
5.61340211478026e-13
1.91923363092585e-12
5.02506209184153e-10
1.73215521728859e-07
3.02665621659025e-07
4.17363632916628e-07
5.13731764531611e-07
5.90575985149156e-07
6.48773156007344e-07
6.90666786606113e-07
7.19357489543789e-07
7.38069696262469e-07
7.49705350251661e-07
7.56612038647585e-07
7.6053056353965e-07
7.62658337377309e-07
7.63765613099482e-07
7.64318545382833e-07
7.64583813923184e-07
7.64706193693729e-07
7.64760513236148e-07
7.64783699578432e-07
7.64793193715353e-07
7.64796893842269e-07
7.64798227027895e-07
7.6479859607378e-07
7.64798468736176e-07
7.64797786306299e-07
7.64795941086031e-07
7.6479127224663e-07
7.64779869111808e-07
7.64752955123139e-07
7.64691592652407e-07
7.64556509138905e-07
7.64269581197022e-07
7.63682095402397e-07
7.62523914789664e-07
7.60328300641313e-07
7.56331146978235e-07
7.49352694083735e-07
7.3768522361815e-07
7.19029605854013e-07
6.90539987451861e-07
6.49037764543013e-07
5.91430912608905e-07
5.1531708564135e-07
4.19668428924024e-07
3.05420607502234e-07
1.75757382500241e-07
5.14717436577483e-10
1.98602811738592e-12
3.40687815283626e-12
8.9830899672398e-10
3.10969034144277e-07
5.41814106622107e-07
7.45307970111299e-07
9.15596449358007e-07
1.05096642714516e-06
1.15325940796081e-06
1.22678829202107e-06
1.27710348720729e-06
1.30990990714892e-06
1.33031217103228e-06
1.34242783510239e-06
1.34930633383539e-06
1.35304460787686e-06
1.35499194734161e-06
1.35596548918486e-06
1.35643313515671e-06
1.35664917939047e-06
1.3567452194299e-06
1.35678628467619e-06
1.35680313381731e-06
1.35680971766488e-06
1.35681209986271e-06
1.35681276781742e-06
1.35681255544138e-06
1.35681137111893e-06
1.35680815524313e-06
1.35680000946334e-06
1.35678010040108e-06
1.35673308065068e-06
1.35662581440546e-06
1.35638954976057e-06
1.35588746407819e-06
1.35485901672399e-06
1.35283080587432e-06
1.3489846931097e-06
1.34198091448204e-06
1.32975002053886e-06
1.30929410865174e-06
1.27657105892516e-06
1.22656353221596e-06
1.15363793302872e-06
1.05225716262562e-06
9.18015948508524e-07
7.48834393538617e-07
5.46015879304679e-07
3.1479983973548e-07
9.16257112512406e-10
3.50314708472795e-12
4.88309866547629e-12
1.28825730924454e-09
4.45235882806477e-07
7.73639746149268e-07
1.06186463924618e-06
1.30221846712231e-06
1.49277952255472e-06
1.63650401845926e-06
1.73968545798364e-06
1.81024243281774e-06
1.85623511770037e-06
1.88484050272113e-06
1.90183360102327e-06
1.91148667415597e-06
1.9167367101743e-06
1.91947395067346e-06
1.92084376124242e-06
1.92150249492706e-06
1.92180719824005e-06
1.92194284039526e-06
1.92200093235723e-06
1.9220248141865e-06
1.92203417045438e-06
1.92203757009024e-06
1.92203853481905e-06
1.92203825337271e-06
1.92203661278599e-06
1.92203213631478e-06
1.92202078437674e-06
1.92199301854355e-06
1.92192739679178e-06
1.9217775904877e-06
1.92144741178526e-06
1.92074532980609e-06
1.91930644991111e-06
1.91646748190961e-06
1.91108168935101e-06
1.90127048201047e-06
1.88413070796371e-06
1.85545355466394e-06
1.80955680344636e-06
1.73937066153552e-06
1.63692230078594e-06
1.49430885135864e-06
1.30512191462649e-06
1.06610941195812e-06
7.78686371305142e-07
4.49803318868072e-07
1.30959469736972e-09
4.99844411881918e-12
6.30990156798045e-12
1.66482501261407e-09
5.7402705763967e-07
9.9488967372069e-07
1.3628143934747e-06
1.6686854742292e-06
1.9106295216651e-06
2.09280967041641e-06
2.22346129665825e-06
2.31275186974381e-06
2.37094539221994e-06
2.4071434778773e-06
2.42865469651365e-06
2.44088096061296e-06
2.4475351066041e-06
2.45100728151807e-06
2.45274652226748e-06
2.45358380271791e-06
2.45397155662076e-06
2.45414440335779e-06
2.45421854630413e-06
2.45424908667961e-06
2.45426108382329e-06
2.45426546216245e-06
2.45426671892621e-06
2.45426638379472e-06
2.45426433151576e-06
2.45425870342972e-06
2.45424441654061e-06
2.45420945132572e-06
2.45412676526806e-06
2.45393788803352e-06
2.45352134867293e-06
2.45263514219338e-06
2.45081800053239e-06
2.4472311184479e-06
2.44042381024096e-06
2.42801872804873e-06
2.4063403907869e-06
2.37005691070619e-06
2.31196195270474e-06
2.22307168424785e-06
2.09321758017444e-06
1.91224836921312e-06
1.67180081935727e-06
1.3673850731351e-06
1.00031977508637e-06
5.78929157287929e-07
1.68794418231279e-09
6.43717628079029e-12
7.66404794652766e-12
2.02224742495972e-09
6.95653280493134e-07
1.20287155547611e-06
1.64473395622479e-06
2.01107345742637e-06
2.30026452793025e-06
2.51771620777261e-06
2.67352559382631e-06
2.77996096803128e-06
2.84932015675767e-06
2.89247006699128e-06
2.91812171944989e-06
2.93270895289823e-06
2.94065334398462e-06
2.94480204107061e-06
2.94688202981899e-06
2.94788436600314e-06
2.94834909106565e-06
2.94855652065881e-06
2.94864563664073e-06
2.94868241702634e-06
2.9486969053706e-06
2.94870221698864e-06
2.94870375891551e-06
2.94870338451051e-06
2.94870096363996e-06
2.948694292014e-06
2.94867734182401e-06
2.9486358404258e-06
2.94853765089327e-06
2.94831324330761e-06
2.9478180895996e-06
2.9467641067595e-06
2.94460197015025e-06
2.94033238976253e-06
2.93222659040717e-06
2.91745064933697e-06
2.89162164639629e-06
2.84837807831511e-06
2.77911422423388e-06
2.67308397833939e-06
2.51808666534725e-06
2.30186903236304e-06
2.01420098942406e-06
1.64933795547986e-06
1.20834254844696e-06
7.00597694658676e-07
2.04599522915916e-09
7.79797547952808e-12
8.92867529766796e-12
2.35619112886955e-09
8.08821386158349e-07
1.39559365481258e-06
1.90516449018855e-06
2.32663273150867e-06
2.65876392596125e-06
2.90820640083466e-06
3.08680718573204e-06
3.20876790149154e-06
3.28823942664878e-06
3.33768906443927e-06
3.36709636015127e-06
3.38382784754941e-06
3.39294583647091e-06
3.39771097869898e-06
3.40010207702265e-06
3.40125545206376e-06
3.40179079222725e-06
3.4020300437206e-06
3.40213298772747e-06
3.40217555869466e-06
3.40219237501531e-06
3.40219856919558e-06
3.40220038769708e-06
3.40219998671865e-06
3.4021972380428e-06
3.40218962834186e-06
3.40217028223629e-06
3.4021229008306e-06
3.4020107590737e-06
3.40175435387271e-06
3.40118834201755e-06
3.39998300369221e-06
3.39750938200888e-06
3.39262296257064e-06
3.38334319389476e-06
3.36642259791993e-06
3.33683717797482e-06
3.28729179492514e-06
3.20791034528988e-06
3.08634345069527e-06
2.90853395573804e-06
2.66029266723281e-06
2.3296402940092e-06
1.90960092704575e-06
1.40086772186879e-06
8.13604909905873e-07
2.37974777182211e-09
9.06530505139704e-12
1.0092187771931e-11
2.66365081554269e-09
9.12657517601492e-07
1.57178129120563e-06
2.14261109316348e-06
2.61376873782659e-06
2.9845028775415e-06
3.2626580321639e-06
3.46169743063844e-06
3.59757774204337e-06
3.68611829323963e-06
3.74122159986297e-06
3.77400282456086e-06
3.79266313172059e-06
3.80283843683376e-06
3.80815993075376e-06
3.81083237295063e-06
3.81212264437499e-06
3.81272215226494e-06
3.81299040748988e-06
3.81310600187103e-06
3.81315389656275e-06
3.81317286873952e-06
3.8131798903248e-06
3.81318197485155e-06
3.8131815587557e-06
3.81317852026951e-06
3.81317007372186e-06
3.81314859014473e-06
3.81309596541516e-06
3.81297138132648e-06
3.81268642715273e-06
3.81205714934856e-06
3.81071656901663e-06
3.80796441815744e-06
3.80252605854027e-06
3.79219524220403e-06
3.77335364260231e-06
3.74040219449205e-06
3.68520786428164e-06
3.59675348053599e-06
3.46124720787152e-06
3.26295614686188e-06
2.98593216756063e-06
2.61658440523575e-06
2.14676023851548e-06
1.57671139741693e-06
9.17151457784035e-07
2.68646465600921e-09
1.02286494024938e-11
1.11476661690699e-11
2.94282426797346e-09
1.00667591347136e-06
1.73080575484377e-06
2.35643006475027e-06
2.87189272912834e-06
3.27697394016234e-06
3.58064402647235e-06
3.79783533328097e-06
3.94607760714281e-06
4.04267573133201e-06
4.1028060901827e-06
4.1385905421925e-06
4.15897004109108e-06
4.17008922801589e-06
4.17590827222174e-06
4.17883282838474e-06
4.18024605095414e-06
4.18090333873209e-06
4.18119778975967e-06
4.18132485293879e-06
4.18137759851452e-06
4.1813985495393e-06
4.18140633968335e-06
4.18140867805916e-06
4.18140825705919e-06
4.18140496385426e-06
4.18139577638089e-06
4.18137240134291e-06
4.18131514096215e-06
4.18117955888246e-06
4.18086936187102e-06
4.18018411208414e-06
4.17872380111707e-06
4.17572490300139e-06
4.16979729086029e-06
4.15853432801709e-06
4.13798833141134e-06
4.10204938595317e-06
4.04183989805096e-06
3.94532812929923e-06
3.79743810842467e-06
3.58094129741174e-06
3.27831141432884e-06
2.87449518205364e-06
2.36024042024273e-06
1.73532060300537e-06
1.01081306731691e-06
2.96456568900272e-09
1.12820087021443e-11
1.20922458603142e-11
3.19295101209011e-09
1.09072374708184e-06
1.8725794513772e-06
2.54667814784535e-06
3.10123297042979e-06
3.53656897198477e-06
3.86269302569676e-06
4.09585330605173e-06
4.25497256620501e-06
4.35866421805944e-06
4.42322401156123e-06
4.46165768234181e-06
4.48355580895625e-06
4.4955100905155e-06
4.50177013283177e-06
4.50491859856715e-06
4.50644126522835e-06
4.50715011850105e-06
4.50746801927772e-06
4.50760538807939e-06
4.50766251480212e-06
4.50768526625362e-06
4.50769376366959e-06
4.50769634184984e-06
4.50769592421592e-06
4.50769240925585e-06
4.50768257089304e-06
4.50765753581194e-06
4.50759621213841e-06
4.50745099440051e-06
4.50711867800551e-06
4.50638435869774e-06
4.50481901972859e-06
4.50160354430988e-06
4.49524626700962e-06
4.4831643092336e-06
4.4611202550422e-06
4.42255472634327e-06
4.3579349138826e-06
4.25433590220116e-06
4.09555020634487e-06
3.86302880929673e-06
3.53784624763112e-06
3.10364066051824e-06
2.5501523719684e-06
1.87666801593482e-06
1.09448604995204e-06
3.2134722608663e-09
1.22232985689393e-11
1.29264628117531e-11
3.41414448890798e-09
1.16492289896767e-06
1.99745189441972e-06
2.71396890235733e-06
3.30265948007804e-06
3.76438007555411e-06
4.1100732605661e-06
4.35714928925524e-06
4.52574998155629e-06
4.63562912077868e-06
4.70405625724349e-06
4.74480573294859e-06
4.76803324359067e-06
4.78071973937412e-06
4.78736715465215e-06
4.79071270240141e-06
4.79233191961802e-06
4.79308638163014e-06
4.79342508685513e-06
4.79357163367154e-06
4.79363268212092e-06
4.79365705704584e-06
4.79366619928524e-06
4.79366900147897e-06
4.7936685939081e-06
4.79366488770901e-06
4.79365448227611e-06
4.79362800270058e-06
4.7935631488949e-06
4.79340956539985e-06
4.79305804436996e-06
4.79228110517025e-06
4.79062449447701e-06
4.78722070491526e-06
4.78048964574224e-06
4.76769491225352e-06
4.74434665515523e-06
4.70349385793098e-06
4.6350327349109e-06
4.52525984138578e-06
4.35698079762012e-06
4.11049315669761e-06
3.76564520720276e-06
3.30491960016015e-06
2.71714972011473e-06
2.00114832483824e-06
1.16832968206464e-06
3.4334415273319e-09
1.30536985862139e-11
1.36536277636697e-11
3.60723464318609e-09
1.22961679768619e-06
2.10611848874608e-06
2.85935015532278e-06
3.47753727370943e-06
3.96203505207841e-06
4.32461545754532e-06
4.58370112594136e-06
4.76048828219049e-06
4.87571392366962e-06
4.94748620063506e-06
4.99024129498894e-06
5.01462180833055e-06
5.02794441844207e-06
5.03492898653477e-06
5.03844641772649e-06
5.04015003367678e-06
5.04094446811967e-06
5.04130146287531e-06
5.04145610913519e-06
5.04152063611907e-06
5.04154646154882e-06
5.04155618613352e-06
5.04155919530005e-06
5.04155880291347e-06
5.04155493344106e-06
5.04154403837488e-06
5.0415163132602e-06
5.04144842098614e-06
5.04128764286235e-06
5.04091960705196e-06
5.04010600579168e-06
5.0383708443434e-06
5.03480490367887e-06
5.02775184130644e-06
5.01434282702136e-06
4.98987024121054e-06
4.94704518862414e-06
4.87527127043447e-06
4.76017328238581e-06
4.58370494088049e-06
4.32516703277879e-06
3.96334537149287e-06
3.4797153208739e-06
2.86230711704862e-06
2.10948804756529e-06
1.23271386764091e-06
3.62541058586799e-09
1.37770263587986e-11
1.4279243380553e-11
3.77362216640948e-09
1.28532266153905e-06
2.19954102782228e-06
2.98419941589886e-06
3.62760296582078e-06
4.13156047727034e-06
4.50856653183102e-06
4.7779139529519e-06
4.96170025406303e-06
5.08150093613378e-06
5.15613883425846e-06
5.20061430241554e-06
5.22598532404582e-06
5.23985532300608e-06
5.24713056152195e-06
5.25079648645313e-06
5.25257318480197e-06
5.2534023229616e-06
5.25377524557682e-06
5.25393697249401e-06
5.25400455599063e-06
5.25403166515405e-06
5.25404191059801e-06
5.2540451089122e-06
5.25404473538722e-06
5.25404072804965e-06
5.25402941432746e-06
5.25400062566984e-06
5.25393014389166e-06
5.2537632400004e-06
5.25338114512079e-06
5.25253632486936e-06
5.25073424444773e-06
5.2470300959096e-06
5.23970245204771e-06
5.22576942187685e-06
5.20033743621701e-06
5.15582908345442e-06
5.08122732686773e-06
4.96158333431495e-06
4.77812317983108e-06
4.50929558506469e-06
4.13297626139858e-06
3.62977346981502e-06
2.98701712779387e-06
2.20266758282619e-06
1.28817248964407e-06
3.79085317968414e-09
1.43991583063041e-11
1.48104547019145e-11
3.91514003506819e-09
1.33268715321492e-06
2.27887545294716e-06
3.09013023270362e-06
3.75485540635151e-06
4.2752611989218e-06
4.66446143422278e-06
4.94248694281187e-06
5.13219647330932e-06
5.25587264688142e-06
5.33294086033153e-06
5.37887737203402e-06
5.40509090093338e-06
5.41942730469708e-06
5.42695068346328e-06
5.43074364197963e-06
5.43258300722961e-06
5.43344198207828e-06
5.43382864132004e-06
5.433996498303e-06
5.43406674146035e-06
5.43409497568312e-06
5.43410568237791e-06
5.43410905166257e-06
5.43410869941556e-06
5.43410457709333e-06
5.43409290921434e-06
5.43406322194961e-06
5.43399055657222e-06
5.43381849230684e-06
5.43342455629041e-06
5.43255343536783e-06
5.43069495326683e-06
5.42687426076067e-06
5.41931496927986e-06
5.40493968763356e-06
5.3786977578545e-06
5.33276802542354e-06
5.25577810532047e-06
5.13229458290177e-06
4.9429287550371e-06
4.66540902144809e-06
4.27684047201042e-06
3.75709420847957e-06
3.09289847711401e-06
2.28185089887174e-06
1.33536044748939e-06
3.93164492185504e-09
1.49274896472693e-11
1.5255524831497e-11
4.0339196948364e-09
1.37244411653929e-06
2.34540396191857e-06
3.17890497038999e-06
3.86145439594634e-06
4.39560913293433e-06
4.79500513907297e-06
5.08029074189138e-06
5.27495978734369e-06
5.40188434038614e-06
5.48099216964643e-06
5.52815661259022e-06
5.55507936779595e-06
5.56980909357151e-06
5.57754214044751e-06
5.58144266789953e-06
5.58333522429457e-06
5.58421959234374e-06
5.58461797920652e-06
5.58479109001932e-06
5.58486362431667e-06
5.58489283463361e-06
5.58490394566403e-06
5.58490746782743e-06
5.58490713823734e-06
5.58490292137265e-06
5.58489095743829e-06
5.58486051962434e-06
5.58478603394557e-06
5.58460967216407e-06
5.5842058767418e-06
5.58331285072583e-06
5.58140737082235e-06
5.57748951492281e-06
5.56973700296919e-06
5.55499267998196e-06
5.52807466317029e-06
5.48095817669003e-06
5.40197398814694e-06
5.27528389200158e-06
5.08098559772669e-06
4.79620548822467e-06
4.39740378302875e-06
3.86383269992552e-06
3.18171095607927e-06
2.34831980329338e-06
1.37501298024787e-06
4.04993426531819e-09
1.53704253513327e-11
1.56233394684609e-11
4.13226305602156e-09
1.40537446407115e-06
2.4004711371653e-06
3.25235315971522e-06
3.94962613127378e-06
4.49513958339733e-06
4.90296266920562e-06
5.19425326151311e-06
5.39302833597584e-06
5.52264536009744e-06
5.60344602572346e-06
5.65163116980156e-06
5.67914445235866e-06
5.69420227814466e-06
5.70211057903884e-06
5.70610121847319e-06
5.70803844262453e-06
5.70894419343083e-06
5.70935248734454e-06
5.70953005385783e-06
5.70960454126419e-06
5.7096345896332e-06
5.70964605143194e-06
5.7096497088393e-06
5.70964940245713e-06
5.70964510915547e-06
5.70963290102514e-06
5.7096018443125e-06
5.70952586028985e-06
5.70934596436077e-06
5.70893406173734e-06
5.70802301715694e-06
5.70607885659274e-06
5.70208098431799e-06
5.69416926174844e-06
5.67912070869719e-06
5.6516451251718e-06
5.6035496430116e-06
5.5229199750536e-06
5.3935837566684e-06
5.19521470096039e-06
4.90444202520047e-06
4.49719284835498e-06
3.95220639114615e-06
3.25527597129254e-06
2.40341230855918e-06
1.40790723889467e-06
4.14802000768865e-09
1.57369042301475e-11
1.59229525478997e-11
4.21252395261429e-09
1.43226918219082e-06
2.44542538104594e-06
3.31229685107325e-06
4.02157686664238e-06
4.57635659494188e-06
4.99105867634271e-06
5.28725534708787e-06
5.48938864251436e-06
5.62121055198667e-06
5.70339949042372e-06
5.75242304528107e-06
5.78042225193416e-06
5.79575058363959e-06
5.8038036802299e-06
5.80786894224975e-06
5.80984324999306e-06
5.81076680345344e-06
5.81118337292792e-06
5.81136467642204e-06
5.81144081053818e-06
5.81147157064925e-06
5.81148333350815e-06
5.81148710931065e-06
5.81148682605657e-06
5.81148247222337e-06
5.81147006579082e-06
5.81143850620159e-06
5.81136130654692e-06
5.81117854546308e-06
5.81076006992381e-06
5.80983440919481e-06
5.807858849598e-06
5.80379597558671e-06
5.79575482773596e-06
5.78045881167636e-06
5.7525294749245e-06
5.70363696748936e-06
5.62166728274527e-06
5.49017570351937e-06
5.28849033827286e-06
4.9928350346935e-06
4.57870186107776e-06
4.02441043682746e-06
3.31540401015512e-06
2.4484662291949e-06
1.43482695386463e-06
4.22823848921264e-09
1.60359663124328e-11
1.61631872813087e-11
4.27700320768167e-09
1.45389664103451e-06
2.48156738389456e-06
3.36048505827897e-06
4.079417134575e-06
4.64164986844438e-06
5.06188924791646e-06
5.3620390977161e-06
5.56688161836174e-06
5.70048477955626e-06
5.78379701260702e-06
5.8335001295713e-06
5.86189394545395e-06
5.87744240550789e-06
5.88561359739215e-06
5.88973987074845e-06
5.8917445795218e-06
5.89268277143426e-06
5.89310616926684e-06
5.89329056931096e-06
5.89336807545431e-06
5.89339943309544e-06
5.89341145149698e-06
5.89341532987647e-06
5.89341506921182e-06
5.8934106687169e-06
5.89339810428287e-06
5.89336614329293e-06
5.89328797435981e-06
5.89310292978548e-06
5.89267921385365e-06
5.89174189052076e-06
5.8897412516858e-06
5.88562640639425e-06
5.87748168123651e-06
5.86198746134395e-06
5.83369444310983e-06
5.78416276411139e-06
5.70111798000232e-06
5.5678965501524e-06
5.36354885273072e-06
5.06397286310422e-06
4.64431062709441e-06
4.08254348522928e-06
3.36383097095323e-06
2.48476959674379e-06
1.45653127031889e-06
4.2928641343517e-09
1.62763755879577e-11
1.63523030177643e-11
4.32786032900025e-09
1.4709750811822e-06
2.51010689584588e-06
3.39853884585257e-06
4.12509829189038e-06
4.69322517272293e-06
5.11784800100093e-06
5.42113099251012e-06
5.62812370544275e-06
5.76314278087306e-06
5.84734948037215e-06
5.89759476838684e-06
5.92630407702044e-06
5.94202893466764e-06
5.95029499615975e-06
5.95447041400813e-06
5.95649968302678e-06
5.95744973991478e-06
5.95787869339053e-06
5.95806562445232e-06
5.95814425874504e-06
5.95817611173985e-06
5.95818834451432e-06
5.95819231086554e-06
5.95819207195154e-06
5.95818763682916e-06
5.9581749495925e-06
5.95814267550268e-06
5.95806375087068e-06
5.95787692588369e-06
5.95744912044755e-06
5.95650268338192e-06
5.95448241641095e-06
5.95032683497828e-06
5.94210081193067e-06
5.92645083289006e-06
5.89787171759082e-06
5.847836785492e-06
5.76394491647195e-06
5.6293597259274e-06
5.42291213676627e-06
5.12024250206174e-06
4.69621590612813e-06
4.12854549956315e-06
3.40216480392277e-06
2.51351905324412e-06
1.47372852676067e-06
4.34402593199539e-09
1.64663065344434e-11
1.64977319640843e-11
4.36704311587185e-09
1.48415063964733e-06
2.53212829688687e-06
3.42790764548583e-06
4.16036205399915e-06
4.73304898349189e-06
5.16106725366777e-06
5.46678066170567e-06
5.67544403070288e-06
5.81156526763193e-06
5.89646965425109e-06
5.94713879051402e-06
5.97609534616609e-06
5.99195881359936e-06
6.00029963757102e-06
6.0045139054868e-06
6.00656265657202e-06
6.00752216105048e-06
6.00795555764056e-06
6.00814452361524e-06
6.00822407112753e-06
6.00825632885108e-06
6.00826873914308e-06
6.00827278016759e-06
6.00827256199328e-06
6.00826810266271e-06
6.00825532330526e-06
6.00822281285305e-06
6.00814331750236e-06
6.00795514673853e-06
6.00752424441353e-06
6.00657088929964e-06
6.00453568560069e-06
6.00034902987095e-06
5.9920608551344e-06
5.97629156853937e-06
5.94749294336224e-06
5.89707133791446e-06
5.81252783696277e-06
5.67689251378039e-06
5.46882661704127e-06
5.16377116371124e-06
4.73637670206955e-06
4.16414821510712e-06
3.43184297640711e-06
2.53578664089897e-06
1.4870552724756e-06
4.38364082560384e-09
1.6613096953276e-11
1.66058830659367e-11
4.39623465341034e-09
1.49398073908366e-06
2.5485646337208e-06
3.44983635063264e-06
4.18670248743336e-06
4.76280677347208e-06
5.19337367400433e-06
5.50091469273347e-06
5.71083696004566e-06
5.84779065417113e-06
5.93322337109114e-06
5.98421438899393e-06
6.01335929803379e-06
6.0293287176751e-06
6.03772689964002e-06
6.04197109201067e-06
6.04403491426709e-06
6.04500176241989e-06
6.04543863166539e-06
6.04562919861659e-06
6.04570947069175e-06
6.04574205320986e-06
6.04575460828564e-06
6.04575871201779e-06
6.04575851351486e-06
6.04575403903228e-06
6.04574119438767e-06
6.04570851456201e-06
6.04562860952027e-06
6.04543947039166e-06
6.04500633136284e-06
6.04404795774788e-06
6.04200187011244e-06
6.03779247595391e-06
6.02945864871099e-06
6.01360143239146e-06
5.98464055777503e-06
5.93393243409174e-06
5.84890506848032e-06
5.7124885970601e-06
5.50321712700416e-06
5.19638211739115e-06
4.76647290725269e-06
4.19083767655505e-06
3.45410028034054e-06
2.55249462258828e-06
1.49706031350483e-06
4.41336330972297e-09
1.67230634320764e-11
1.668200525032e-11
4.41681581893261e-09
1.50092226570675e-06
2.56017918165471e-06
3.4653419692389e-06
4.20533904252355e-06
4.78387340009915e-06
5.21625676426818e-06
5.52510377239298e-06
5.73592831856622e-06
5.87348066320491e-06
5.95929475434423e-06
6.01051908529552e-06
6.03980114018326e-06
6.05584808700298e-06
6.06428846202127e-06
6.0685547931666e-06
6.07062983458113e-06
6.07160218678931e-06
6.07204167897149e-06
6.07223346634039e-06
6.07231429719117e-06
6.07234713406118e-06
6.07235980494333e-06
6.07236396069798e-06
6.07236378082359e-06
6.07235929913984e-06
6.07234641292931e-06
6.07231362293332e-06
6.0722334502536e-06
6.07204367493383e-06
6.07160905453632e-06
6.07064732677615e-06
6.06859389895354e-06
6.06436904145011e-06
6.05600393613581e-06
6.04008608312867e-06
6.01101269174789e-06
5.9601049208455e-06
5.87473902892982e-06
5.73777418086181e-06
5.52765397134343e-06
5.21956314862594e-06
4.78787575108189e-06
4.20982744191841e-06
3.4699457662596e-06
2.56439739289393e-06
1.50419321000597e-06
4.43454930835523e-09
1.6801371222377e-11
1.67300990697108e-11
4.42984058060498e-09
1.50532370710666e-06
2.5675532029971e-06
3.47519812920687e-06
4.21719864784302e-06
4.79729342008648e-06
5.23084787836608e-06
5.54054077708292e-06
5.75195283420018e-06
5.88989733178918e-06
5.97596293486153e-06
6.02734226942279e-06
6.05671617304278e-06
6.07281549285354e-06
6.0812846364037e-06
6.08556621216151e-06
6.08764906096672e-06
6.0886252875367e-06
6.08906664979071e-06
6.08925932036669e-06
6.08934056308009e-06
6.08937359186382e-06
6.08938635284493e-06
6.08939055110753e-06
6.08939038891348e-06
6.08938590715852e-06
6.08937300077019e-06
6.08934015409838e-06
6.08925984205733e-06
6.08906972995115e-06
6.0886343073328e-06
6.08767071797436e-06
6.0856131196073e-06
6.081379289624e-06
6.07299570133956e-06
6.05704145393193e-06
6.02789963337604e-06
5.97686909079962e-06
5.89129308867122e-06
5.75398525594783e-06
5.54333080980542e-06
5.23444535997343e-06
4.80162791017497e-06
4.22204050906009e-06
3.48014713730017e-06
2.57206918850436e-06
1.50879642115181e-06
4.44823167460733e-09
1.68519476297717e-11
1.67528649285371e-11
4.43602114227832e-09
1.50742035527418e-06
2.57107847796052e-06
3.4799255838064e-06
4.22290464665813e-06
4.80376887164871e-06
5.23790716813215e-06
5.54802712110116e-06
5.75974006729401e-06
5.89788865573055e-06
5.98408751260466e-06
6.03555054544364e-06
6.06497506661943e-06
6.08110387590939e-06
6.08958958495566e-06
6.09388014534019e-06
6.09596770843066e-06
6.09694633529071e-06
6.09738888909943e-06
6.09758214075999e-06
6.09766366499571e-06
6.09769683116245e-06
6.09770966029168e-06
6.09771389313954e-06
6.09771374790387e-06
6.09770927225091e-06
6.09769636463353e-06
6.09766350975253e-06
6.09758317618443e-06
6.09739300408446e-06
6.09695740826273e-06
6.09599333887154e-06
6.09393449875605e-06
6.08969768040479e-06
6.08130737708784e-06
6.0653389793203e-06
6.03616909479769e-06
5.98508602629968e-06
5.89941705116616e-06
5.76195330705333e-06
5.55105072479385e-06
5.24178978072318e-06
4.80843090705919e-06
4.22809783221257e-06
3.48522081657017e-06
2.57589623322293e-06
1.51110024907921e-06
4.45510451050511e-09
1.68774276464152e-11
1.6751674422928e-11
4.43571937441503e-09
1.50733157356683e-06
2.57095320325595e-06
3.4797871702311e-06
4.22277107854306e-06
4.80365298313418e-06
5.23781680342871e-06
5.54796558064531e-06
5.75970692815932e-06
5.8978808764525e-06
5.9841006209082e-06
6.03557967721054e-06
6.06501573310264e-06
6.08115237079305e-06
6.0896431131689e-06
6.09393675387638e-06
6.09602612069701e-06
6.09700576475599e-06
6.09744887583844e-06
6.0976424275947e-06
6.09772411301586e-06
6.09775736675765e-06
6.09777024426754e-06
6.09777450468104e-06
6.09777437584467e-06
6.0977699120861e-06
6.09775702124402e-06
6.09772420480724e-06
6.09764396390366e-06
6.09745400059163e-06
6.09701884199951e-06
6.09605563068202e-06
6.09399837820132e-06
6.08976433662363e-06
6.08137862500469e-06
6.06541739493404e-06
6.03625804206193e-06
5.98518947673753e-06
5.89953910569884e-06
5.7620973836878e-06
5.55121847246936e-06
5.24197988538663e-06
4.80863801474082e-06
4.22831177435286e-06
3.48542617656347e-06
2.57607209946365e-06
1.51121981632945e-06
4.45551380011455e-09
1.68791220624975e-11
1.67265640363121e-11
4.42894478547692e-09
1.50506004256651e-06
2.56718060387454e-06
3.47478581208877e-06
4.21680019503038e-06
4.79694730474154e-06
5.23057781516098e-06
5.54035692313146e-06
5.751854152843e-06
5.88987485819647e-06
5.97600332626649e-06
6.02743095957562e-06
6.05683966170501e-06
6.07296261725775e-06
6.08144696696425e-06
6.08573785283235e-06
6.08782615482961e-06
6.0888054569478e-06
6.08924850389145e-06
6.08944208126681e-06
6.08952381062641e-06
6.08955710348536e-06
6.08957001013375e-06
6.0895742912788e-06
6.08957417839674e-06
6.08956973255463e-06
6.08955687711014e-06
6.08952414723694e-06
6.08944411639407e-06
6.08925463724935e-06
6.08882053918465e-06
6.08785954783078e-06
6.08580675394442e-06
6.08158132256302e-06
6.0732116139011e-06
6.05727901692462e-06
6.02816897880782e-06
5.97718215307238e-06
5.89166214440609e-06
5.75442045844063e-06
5.54383691008552e-06
5.23501812827174e-06
4.80225094728507e-06
4.22268301123781e-06
3.48076272640778e-06
2.57259531710211e-06
1.50915337946306e-06
4.44945162713078e-09
1.6856993647481e-11
1.66762452308835e-11
4.41535687148498e-09
1.50049222061098e-06
2.55956935551714e-06
3.46466483003035e-06
4.20468265368246e-06
4.78330182276988e-06
5.21581014744077e-06
5.52479990710071e-06
5.73576625906921e-06
5.87344600932794e-06
5.95936553910275e-06
6.01067108552083e-06
6.04001177245617e-06
6.05609860697254e-06
6.06456467599893e-06
6.06884675327274e-06
6.07093102350738e-06
6.0719085823391e-06
6.07235092638398e-06
6.0725442479706e-06
6.07262590124442e-06
6.07265918359307e-06
6.07267209961458e-06
6.0726763944872e-06
6.0726762972758e-06
6.07267187605969e-06
6.07265907636201e-06
6.07262648515943e-06
6.07254679069555e-06
6.07235809066938e-06
6.0719257184182e-06
6.07096839659085e-06
6.06892310981345e-06
6.06471247002157e-06
6.05637083434418e-06
6.04048953925376e-06
6.01146971823608e-06
5.96063546408885e-06
5.87536345061006e-06
5.73850905490374e-06
5.52850655357375e-06
5.22052542768951e-06
4.78891928090062e-06
4.21089992196926e-06
3.47096953839781e-06
2.5652689609734e-06
1.50478217894861e-06
4.43655638149383e-09
1.68096648899974e-11
1.65981141950615e-11
4.39426813539717e-09
1.49339955646873e-06