/*--------------------------------*- C++ -*----------------------------------*\
  =========                 |
  \\      /  F ield         | OpenFOAM: The Open Source CFD Toolbox
   \\    /   O peration     | Website:  https://openfoam.org
    \\  /    A nd           | Version:  10
     \\/     M anipulation  |
\*---------------------------------------------------------------------------*/
FoamFile
{
    format      ascii;
    class       volScalarField;
    location    "8.8";
    object      h;
}
// * * * * * * * * * * * * * * * * * * * * * * * * * * * * * * * * * * * * * //

dimensions      [0 2 -2 0 0 0 0];

internalField   nonuniform List<scalar> 
2500
(
6101.26235986232
6099.4997242143
6091.14582202223
6084.13440771743
6079.31694407251
6076.23944761942
6074.34137791308
6073.1989393519
6072.52942596924
6072.14996783882
6071.9409007014
6071.83014684763
6071.77357638677
6071.74517192911
6071.73123036592
6071.72424234273
6071.72104439178
6071.71924004974
6071.718022456
6071.71730686522
6071.71679134568
6071.71639172142
6071.71608316312
6071.71589503879
6071.71571218588
6071.71557614211
6071.71553831993
6071.71555367127
6071.71563722541
6071.71580933335
6071.71611347942
6071.71670705989
6071.71763531591
6071.71936153352
6071.72278215253
6071.72979645212
6071.74424471009
6071.77345973986
6071.83217874756
6071.94504900686
6072.15590569955
6072.53721970427
6073.20520025563
6074.34162842738
6076.23079315212
6079.29736164083
6084.12005319692
6091.17041044976
6099.55588697803
6101.18051102393
5394.2853878318
5377.87457411674
5353.20347569371
5333.25934455822
5319.44628739496
5310.48034512324
5304.84385692076
5301.38288919236
5299.31172977876
5298.10946231395
5297.43408501164
5297.06807933198
5296.87681400636
5296.78016296562
5296.7329063121
5296.71040828937
5296.70009745957
5296.69531377128
5296.69298927493
5296.69185208914
5296.69122431433
5296.69082369413
5296.69054606599
5296.69036636551
5296.690215298
5296.69010275675
5296.69005606278
5296.69005898372
5296.69013024345
5296.69033180894
5296.69080615187
5296.69188992303
5296.69422342184
5296.69932704823
5296.71041337222
5296.73412890105
5296.78360276633
5296.8837226753
5297.08020859755
5297.4522415533
5298.13321174506
5299.3384895687
5301.40504176729
5304.84973981317
5310.45957114239
5319.40364666688
5333.24670496464
5353.32190431323
5378.12131925283
5393.87755702564
4646.63919032545
4614.21280303367
4577.26567380716
4548.6038823394
4528.99152930945
4516.33299899731
4508.40099278371
4503.53889407238
4500.63016256856
4498.93979867229
4497.98879012567
4497.47213540655
4497.20136038708
4497.06435781293
4496.99739707554
4496.96571450211
4496.95123633268
4496.94472806583
4496.94179080715
4496.94045920501
4496.93981039259
4496.93944744713
4496.93921769761
4496.93907004641
4496.93895604418
4496.93887102059
4496.93882786765
4496.93882083801
4496.93887674345
4496.93908305964
4496.93963152508
4496.94097303938
4496.94408571344
4496.95111470968
4496.96662169642
4497.00003114453
4497.06991709074
4497.2114294343
4497.48858767172
4498.01277746804
4498.970899128
4500.66487023268
4503.5682498326
4508.41128554424
4516.31355446311
4528.95847160839
4548.64536577039
4577.55210819084
4614.80471904871
4646.53187048948
3938.70209205418
3895.47135086863
3853.65934461723
3822.54249646122
3801.76792564423
3788.63174544282
3780.55348029577
3775.68453734571
3772.8142310106
3771.16710580241
3770.2505865561
3769.75741697629
3769.50113497225
3769.3725133272
3769.31015146872
3769.28091396437
3769.26767012779
3769.26181733109
3769.25925827733
3769.25814237973
3769.25763022164
3769.25736165022
3769.25719843666
3769.25709417407
3769.25701698148
3769.25695802372
3769.25692204245
3769.25690603538
3769.25692890803
3769.25707307938
3769.25751096872
3769.25864022846
3769.26137204255
3769.2676652802
3769.28173028735
3769.3123701024
3769.37710567795
3769.50944368454
3769.77104199189
3770.27076568537
3771.19394463624
3772.84534553615
3775.71326168131
3780.56958888313
3788.63022407866
3801.77702264642
3822.67685768395
3854.14361734814
3896.46632477803
3939.38002583408
3327.99456861385
3281.45350475173
3241.08329939842
3212.2043206248
3193.42845839101
3181.8213329141
3174.82782778944
3170.68783259479
3168.28415437119
3166.92210509441
3166.17210540939
3165.77201990683
3165.56561189996
3165.4626775318
3165.41306265802
3165.38994570268
3165.37954320533
3165.37499914409
3165.37305524293
3165.37223475076
3165.37187755725
3165.37170127505
3165.3715979209
3165.3715328709
3165.37148624816
3165.37144916541
3165.37142224559
3165.37140465886
3165.37140393715
3165.37148512422
3165.3717857278
3165.37261055011
3165.37468090967
3165.37952581545
3165.39045705563
3165.41447378561
3165.46561866264
3165.57098808494
3165.78094874353
3166.18558881201
3166.94052683528
3168.30634394867
3170.70991096337
3174.84412482111
3181.83309631843
3193.47213681945
3212.40713942864
3241.70254551583
3282.75866920576
3329.49829725187
2842.60844833602
2799.3656494173
2764.75322785084
2740.8874289041
2725.78129066326
2716.65628762848
2711.27148236327
2708.14077653307
2706.35000988984
2705.34732953846
2704.8004159336
2704.51082793983
2704.36229820528
2704.28857877905
2704.25319222769
2704.23677460548
2704.2294235606
2704.22624141066
2704.22490437204
2704.22435748429
2704.2241325838
2704.22402955221
2704.22397172033
2704.22393621282
2704.22391170218
2704.22389079837
2704.22387236648
2704.2238560307
2704.22384581678
2704.22388189258
2704.22406191579
2704.22460447317
2704.22601972439
2704.22937936978
2704.23701669623
2704.25390962972
2704.29010631962
2704.36513690935
2704.5156251961
2704.80781910887
2705.35772315186
2706.36297528951
2708.15446125979
2711.28363136288
2716.67206568975
2725.83892764957
2741.11123167325
2765.40525238404
2800.79128959612
2844.66172465463
2484.29623733788
2448.44985112893
2421.5238151416
2403.5787441392
2392.51567910279
2385.98510016315
2382.21020835073
2380.05418358136
2378.83861779919
2378.16560270697
2377.80161563867
2377.61010008065
2377.51232533751
2377.46396388402
2377.44081407925
2377.43010438661
2377.42532752933
2377.42327562828
2377.42242757424
2377.42209179773
2377.42196273855
2377.42190978171
2377.42188209697
2377.4218658046
2377.42185533801
2377.42184507471
2377.42183342633
2377.42182017967
2377.42180832032
2377.42181748868
2377.42191262176
2377.42223996652
2377.42313039162
2377.42527508306
2377.43018209439
2377.44109473928
2377.46458834597
2377.51351679701
2377.61216440234
2377.80488809358
2378.17033259205
2378.84468963895
2380.06081244006
2382.21689862503
2385.99804464647
2392.5690625299
2403.78128191439
2422.11562194388
2449.7988115726
2486.50844000051
2237.06215638682
2210.02251007631
2190.75131677743
2178.30536750115
2170.82609275556
2166.50981585281
2164.06519609803
2162.69311700207
2161.93028289904
2161.51237731486
2161.28809153135
2161.17071317125
2161.11100378726
2161.08154072337
2161.06746167422
2161.06096032978
2161.05806934397
2161.05683620524
2161.05633471694
2161.05614293234
2161.05607526874
2161.05605233871
2161.05604196022
2161.05603640745
2161.05603367159
2161.05602963204
2161.0560228147
2161.05601315042
2161.05600318436
2161.05600156861
2161.05604552688
2161.05622672866
2161.0567484859
2161.05802503167
2161.0609634788
2161.06752704129
2161.08170751037
2161.11134284834
2161.1713325538
2161.28912114531
2161.51392249291
2161.9322816092
2162.69518969115
2164.06738822252
2166.51737817391
2170.86582459265
2178.46337779189
2191.22736173647
2211.15701245262
2239.09775236721
2076.76706989731
2057.96034426936
2045.14363937295
2037.10364708852
2032.3893955884
2029.72815854686
2028.25073830463
2027.4356036661
2026.98853789001
2026.74607322078
2026.61685356046
2026.54953653099
2026.51538758081
2026.49856288055
2026.49053040096
2026.4868251958
2026.48518166124
2026.48448527767
2026.48420664119
2026.48410383858
2026.4840719852
2026.48406501616
2026.48406258086
2026.48406183293
2026.48406268024
2026.48406188331
2026.48405818146
2026.48405172803
2026.48404393488
2026.48403928674
2026.48405689658
2026.48414993709
2026.48443703228
2026.48515165591
2026.48680673347
2026.49051685187
2026.49855228777
2026.51538520154
2026.54955939313
2026.61692633013
2026.74620618002
2026.98864313835
2027.43539897775
2028.25022972958
2029.73091008772
2032.41416300501
2037.21279039879
2045.48932949538
2058.82372508286
2078.42858102785
1978.66482036467
1966.48746364713
1958.50524105894
1953.63130579946
1950.83990819783
1949.29750564851
1948.45781363542
1948.00227359649
1947.7557346865
1947.62331079674
1947.55319127518
1947.51680588605
1947.49838624326
1947.48931866528
1947.48499065299
1947.48299521839
1947.48211194755
1947.48174015343
1947.48159385453
1947.48154219991
1947.48152919294
1947.48152898045
1947.4815299989
1947.48153123853
1947.48153251929
1947.48153254641
1947.48153073144
1947.4815267758
1947.48152129247
1947.48151690692
1947.48152240444
1947.48156697956
1947.48171629392
1947.48209503318
1947.48297790033
1947.48496264451
1947.48926773961
1947.49829859032
1947.51666850532
1947.55298944592
1947.62301251164
1947.75523132191
1948.00129846529
1948.45620186369
1949.29724799895
1950.85286571417
1953.69910688095
1958.73486764556
1967.08989436779
1979.89476477294
1921.76162266102
1914.36652104287
1909.68207639729
1906.89257836405
1905.33042058634
1904.48492917923
1904.0333633068
1903.79242007708
1903.66372016581
1903.59523612895
1903.559191625
1903.54055145315
1903.53112909322
1903.5264918098
1903.52427774911
1903.52325699902
1903.52280600459
1903.52261744428
1903.52254455539
1903.52252060479
1903.52251632608
1903.5225176968
1903.52251941946
1903.52252099805
1903.52252213105
1903.52252239317
1903.52252155742
1903.52251919236
1903.52251566438
1903.52251249836
1903.52251340313
1903.5225334028
1903.52260707122
1903.52279812539
1903.52324657909
1903.52425699091
1903.52645008346
1903.53105262594
1903.54042417776
1903.55899232193
1903.59492496093
1903.66319285626
1903.79143485325
1904.0316492989
1904.48337442928
1905.33585610226
1906.93079887216
1909.82298625024
1914.75584772035
1922.59955724175
1890.36639662489
1886.12910909721
1883.52513579619
1882.01023202163
1881.17977946048
1880.73920405646
1880.50825765251
1880.38703546912
1880.32312017965
1880.28942018069
1880.27178429883
1880.26269103653
1880.2580990718
1880.25583854573
1880.25475846518
1880.25426036503
1880.25404066776
1880.25394946078
1880.25391491611
1880.25390477166
1880.25390388903
1880.25390508374
1880.25390653115
1880.25390778678
1880.2539085987
1880.25390888633
1880.25390851181
1880.25390715718
1880.25390504929
1880.2539029431
1880.25390253369
1880.25391107044
1880.25394570524
1880.25403786694
1880.25425576568
1880.25474754331
1880.25581479051
1880.25805365718
1880.26261292892
1880.27165743746
1880.28921228168
1880.32274810728
1880.38630443841
1880.50688601072
1880.73745719149
1881.18125482433
1882.02985539042
1883.60562863569
1886.36402937554
1890.89735602585
1873.83616357891
1871.53392706827
1870.15677641229
1869.3727607282
1868.95159142385
1868.73241078673
1868.6195964781
1868.56133357525
1868.53100848531
1868.51516358901
1868.50691693386
1868.50267595226
1868.50053555013
1868.49948117594
1868.49897683757
1868.49874412
1868.49864164472
1868.49859942542
1868.49858390056
1868.49857986377
1868.49857991667
1868.49858080685
1868.49858178877
1868.49858261607
1868.49858312989
1868.49858334715
1868.49858318082
1868.49858244251
1868.49858126322
1868.49857998941
1868.49857941411
1868.4985828671
1868.49859848395
1868.49864117255
1868.49874284406
1868.49897258004
1868.49947071988
1868.50051445572
1868.50263842981
1868.50685356953
1868.51505298311
1868.53079283358
1868.56087304505
1868.61865809915
1868.73098041532
1868.9514014169
1869.38191769648
1870.19983627587
1871.66715167696
1874.15161737719
1865.50564102226
1864.31447020539
1863.61887823155
1863.23076160344
1863.02622869699
1862.9217391014
1862.86890627836
1862.84205499894
1862.82825838995
1862.82111437894
1862.81741588048
1862.81551827174
1862.81456076585
1862.81408860932
1862.81386244227
1862.81375800043
1862.81371208649
1862.81369332515
1862.81368667272
1862.8136851682
1862.81368539033
1862.81368596118
1862.81368654997
1862.81368703601
1862.81368733229
1862.81368746771
1862.81368739377
1862.8136870117
1862.81368638948
1862.81368568105
1862.81368526023
1862.8136865846
1862.81369336113
1862.81371241674
1862.81375812982
1862.81386149659
1862.81408528956
1862.81455328482
1862.81550421324
1862.81739062849
1862.82106550353
1862.82814974235
1862.84179567294
1862.8683302396
1862.92074629302
1863.02557739975
1863.23460264544
1863.64055215012
1864.38586911742
1865.68249530002
1861.47643646262
1860.88738032584
1860.55070770547
1860.36632845913
1860.27090742536
1860.2230169861
1860.19921814595
1860.18731311814
1860.18127452051
1860.17817575371
1860.17657980806
1860.17576266661
1860.17535030917
1860.17514669797
1860.17504900146
1860.17500384306
1860.1749840242
1860.17497599521
1860.17497325774
1860.17497273979
1860.17497292786
1860.17497325613
1860.17497357918
1860.17497384168
1860.17497400007
1860.17497407499
1860.17497404211
1860.17497385356
1860.17497354211
1860.17497317445
1860.1749729223
1860.1749734053
1860.17497625131
1860.17498447508
1860.17500434099
1860.17504927331
1860.17514634946
1860.17534882358
1860.17575931055
1860.1765726672
1860.1781582969
1860.18122599779
1860.18717919135
1860.19889278476
1860.22240057165
1860.27029660104
1860.36773424652
1860.56101012872
1860.92371036855
1861.57049197213
1859.6014618577
1859.32214474355
1859.16553445419
1859.08123580638
1859.03834724577
1859.01718417483
1859.0068426901
1859.00174981988
1858.99919966021
1858.99790280239
1858.99723829099
1858.99689869
1858.99672725124
1858.9966424611
1858.99660169824
1858.99658283518
1858.9965745705
1858.99657125202
1858.99657016904
1858.99657000774
1858.99657012352
1858.99657029667
1858.99657046164
1858.99657059398
1858.99657067329
1858.99657071131
1858.99657069676
1858.99657060775
1858.99657045923
1858.99657027962
1858.99657014763
1858.99657031579
1858.99657147492
1858.99657491697
1858.99658328473
1858.99660220641
1858.99664297921
1858.99672774544
1858.99689909121
1858.99723795546
1858.99789856863
1858.99918043856
1859.00168538036
1859.00667095332
1859.01683250891
1859.03791494278
1859.08164756045
1859.1701715749
1859.33976641779
1859.64912255414
1858.76009437514
1858.63273355453
1858.56253529939
1858.52534818249
1858.50672923727
1858.4976891963
1858.49334299779
1858.49123532139
1858.49019344312
1858.48966839401
1858.48940071372
1858.48926414553
1858.48919515875
1858.48916097418
1858.48914450389
1858.48913687202
1858.48913353324
1858.48913220438
1858.48913178877
1858.48913174457
1858.48913180748
1858.48913189243
1858.48913197148
1858.48913203424
1858.48913207163
1858.48913208959
1858.48913208324
1858.48913204298
1858.48913197538
1858.4891318923
1858.48913182825
1858.48913188505
1858.48913234641
1858.48913374747
1858.48913717254
1858.4891449113
1858.48916153477
1858.48919596397
1858.48926530943
1858.4894020932
1858.48966856214
1858.49018682322
1858.49120611013
1858.49325737009
1858.49750186439
1858.50646491012
1858.52541136357
1858.56451509342
1858.64090966523
1858.78319295324
1858.39526073132
1858.33927501088
1858.30888455179
1858.29302062445
1858.28519602028
1858.28145483427
1858.27968415581
1858.27883832903
1858.27842554001
1858.2782194014
1858.27811483183
1858.27806156204
1858.27803462894
1858.27802125353
1858.27801479303
1858.27801179424
1858.27801048355
1858.27800996626
1858.27800981117
1858.27800980057
1858.27800983031
1858.27800986912
1858.27800990467
1858.27800993266
1858.27800994922
1858.27800995715
1858.27800995443
1858.27800993703
1858.27800990771
1858.27800987135
1858.2780098425
1858.2780098619
1858.27801004236
1858.27801059892
1858.27801196488
1858.27801504616
1858.27802164062
1858.27803523956
1858.27806251517
1858.27811613967
1858.27822045805
1858.27842368514
1858.27882574049
1858.2796435009
1858.28136064784
1858.28504946117
1858.29299033263
1858.30968688112
1858.34291490859
1858.40600267142
1858.24209739848
1858.21831724873
1858.20558341342
1858.19902569215
1858.19583610789
1858.19433305888
1858.19363229718
1858.19330244514
1858.19314349959
1858.19306484364
1858.19302513933
1858.1930049398
1858.19299471466
1858.19298962347
1858.19298715685
1858.19298600895
1858.19298550685
1858.19298530958
1858.19298525171
1858.19298524901
1858.19298526181
1858.19298527808
1858.19298529288
1858.19298530446
1858.19298531125
1858.19298531447
1858.19298531334
1858.19298530621
1858.19298529422
1858.19298527936
1858.19298526756
1858.19298527494
1858.19298534506
1858.19298556197
1858.19298609452
1858.19298729199
1858.19298984322
1858.19299507829
1858.19300552796
1858.19302599132
1858.1930657156
1858.19314317971
1858.19329724521
1858.19361379909
1858.19428801479
1858.19576063914
1858.19898687835
1858.20589185863
1858.21987623976
1858.24690470896
1858.179733686
1858.1699535739
1858.16477980424
1858.16214829741
1858.16088488194
1858.16029760413
1858.16002770428
1858.15990246254
1858.15984286312
1858.15981363449
1858.15979895087
1858.15979148822
1858.15978770419
1858.15978581378
1858.15978489399
1858.15978446389
1858.15978427475
1858.15978419988
1858.15978417738
1858.15978417574
1858.15978418018
1858.15978418604
1858.15978419142
1858.15978419563
1858.15978419805
1858.15978419918
1858.15978419872
1858.15978419604
1858.1597841916
1858.15978418618
1858.15978418216
1858.15978418585
1858.15978421359
1858.15978429738
1858.15978450153
1858.15978495747
1858.15978592275
1858.15978789159
1858.15979179957
1858.15979941666
1858.15981416106
1858.15984292057
1858.15990038601
1858.16001959528
1858.16027699081
1858.16084828054
1858.16212117316
1858.16489201488
1858.17059751863
1858.18180931582
1858.15506570348
1858.15116379439
1858.14912198699
1858.14809523287
1858.1476081672
1858.14738464839
1858.1472833153
1858.14723693599
1858.14721513319
1858.14720453449
1858.14719923373
1858.14719654085
1858.14719517165
1858.14719448413
1858.14719414712
1858.14719398783
1858.14719391652
1858.1471938873
1858.14719387733
1858.14719387525
1858.14719387584
1858.14719387714
1858.14719387844
1858.14719387947
1858.14719388003
1858.14719388027
1858.14719388008
1858.14719387927
1858.14719387799
1858.14719387656
1858.1471938759
1858.14719387848
1858.14719389028
1858.14719392316
1858.1471940011
1858.14719417246
1858.14719453134
1858.14719525715
1858.14719668756
1858.14719945947
1858.14720480467
1858.14721522439
1858.14723612579
1858.14727987395
1858.14737557818
1858.1475912929
1858.14807977452
1858.14916041095
1858.15142085259
1858.15593229223
1858.14557248262
1858.14405978305
1858.14327592068
1858.14288583901
1858.14270283612
1858.14261985279
1858.14258271182
1858.1425659337
1858.14255813798
1858.1425543795
1858.14255250649
1858.14255155387
1858.14255106687
1858.14255081992
1858.14255069693
1858.14255063721
1858.14255060914
1858.14255059644
1858.1425505909
1858.14255058848
1858.14255058731
1858.14255058667
1858.14255058627
1858.142550586
1858.14255058579
1858.14255058566
1858.14255058558
1858.14255058553
1858.14255058553
1858.14255058572
1858.14255058647
1858.14255058871
1858.1425505946
1858.14255060847
1858.14255063905
1858.14255070376
1858.14255083628
1858.14255110029
1858.14255161499
1858.14255260429
1858.14255450163
1858.14255819326
1858.14256561979
1858.14258129061
1858.1426159989
1858.14269539123
1858.14287798045
1858.14328817529
1858.14415914597
1858.14592305516
1858.14201308042
1858.1414423366
1858.14114920993
1858.14100473831
1858.14093765058
1858.14090756373
1858.14089425683
1858.14088831786
1858.14088558748
1858.14088427993
1858.14088362901
1858.14088329612
1858.14088312374
1858.14088303432
1858.14088298806
1858.14088296411
1858.14088295154
1858.14088294468
1858.14088294066
1858.14088293803
1858.14088293615
1858.14088293473
1858.14088293365
1858.14088293286
1858.14088293233
1858.14088293206
1858.14088293205
1858.14088293229
1858.14088293279
1858.14088293362
1858.14088293493
1858.14088293706
1858.1408829408
1858.14088294772
1858.14088296092
1858.14088298657
1858.14088303647
1858.14088313278
1858.14088331668
1858.1408836652
1858.14088432744
1858.1408856102
1858.14088819342
1858.14089368144
1858.14090597539
1858.14093449036
1858.14100104422
1858.14115277271
1858.14147959099
1858.14215075189
1858.14071115761
1858.14050128931
1858.14039440641
1858.14034220639
1858.14031819481
1858.14030753363
1858.14030286773
1858.14030080658
1858.14029986643
1858.14029941726
1858.14029919224
1858.1402990751
1858.14029901241
1858.14029897808
1858.14029895873
1858.14029894735
1858.14029894022
1858.14029893541
1858.14029893189
1858.14029892918
1858.14029892702
1858.1402989253
1858.14029892396
1858.14029892297
1858.14029892232
1858.140298922
1858.14029892202
1858.14029892237
1858.14029892306
1858.14029892414
1858.14029892565
1858.14029892775
1858.14029893073
1858.14029893514
1858.14029894209
1858.14029895373
1858.14029897412
1858.14029901083
1858.14029907779
1858.14029920096
1858.14029943052
1858.14029987032
1858.14030075313
1858.14030263613
1858.14030689467
1858.14031689767
1858.14034057041
1858.14039530459
1858.14051485909
1858.14076372717
1858.14024604406
1858.14017074439
1858.14013272729
1858.14011433255
1858.14010594638
1858.14010225465
1858.1401006517
1858.14009994776
1858.14009962682
1858.14009947189
1858.14009939215
1858.14009934853
1858.14009932329
1858.14009930783
1858.14009929774
1858.1400992907
1858.14009928546
1858.14009928135
1858.14009927802
1858.14009927527
1858.14009927301
1858.14009927119
1858.14009926975
1858.1400992687
1858.14009926801
1858.14009926768
1858.14009926771
1858.1400992681
1858.14009926886
1858.14009927002
1858.14009927161
1858.1400992737
1858.1400992764
1858.14009927992
1858.14009928466
1858.14009929137
1858.14009930143
1858.14009931737
1858.14009934384
1858.14009938939
1858.14009947055
1858.14009962169
1858.14009992064
1858.14010055616
1858.14010200078
1858.14010542833
1858.14011364194
1858.14013289483
1858.14017555327
1858.14026559202
1858.14008357086
1858.14005718524
1858.1400440106
1858.14003770898
1858.14003486188
1858.14003361574
1858.14003307545
1858.1400328367
1858.14003272555
1858.14003266943
1858.14003263825
1858.14003261918
1858.14003260648
1858.14003259737
1858.14003259042
1858.14003258487
1858.14003258028
1858.14003257643
1858.14003257318
1858.14003257044
1858.14003256816
1858.1400325663
1858.14003256485
1858.14003256378
1858.14003256308
1858.14003256274
1858.14003256278
1858.14003256318
1858.14003256397
1858.14003256516
1858.14003256677
1858.14003256884
1858.14003257143
1858.14003257463
1858.1400325786
1858.14003258359
1858.14003259009
1858.14003259894
1858.14003261165
1858.14003263099
1858.14003266228
1858.14003271661
1858.14003281932
1858.1400330325
1858.14003351349
1858.14003465838
1858.14003742857
1858.14004401325
1858.14005884571
1858.14009065886
1858.14002801883
1858.14001898785
1858.14001456672
1858.14001249383
1858.14001156756
1858.14001116148
1858.1400109823
1858.14001089977
1858.14001085827
1858.14001083467
1858.14001081938
1858.14001080836
1858.14001079979
1858.14001079279
1858.14001078691
1858.14001078187
1858.14001077753
1858.1400107738
1858.14001077059
1858.14001076787
1858.1400107656
1858.14001076375
1858.1400107623
1858.14001076124
1858.14001076054
1858.14001076021
1858.14001076025
1858.14001076066
1858.14001076145
1858.14001076264
1858.14001076425
1858.1400107663
1858.14001076884
1858.14001077191
1858.14001077559
1858.14001077999
1858.14001078527
1858.14001079173
1858.14001079985
1858.14001081052
1858.14001082539
1858.14001084793
1858.14001088607
1858.14001095929
1858.14001111737
1858.1400114871
1858.1400123833
1858.14001454833
1858.14001954753
1858.14003052775
1858.14000941017
1858.14000639688
1858.1400049918
1858.14000436564
1858.14000409141
1858.14000396789
1858.14000390887
1858.14000387769
1858.1400038588
1858.14000384564
1858.14000383544
1858.140003827
1858.14000381978
1858.14000381349
1858.14000380798
1858.14000380314
1858.14000379892
1858.14000379525
1858.1400037921
1858.14000378941
1858.14000378717
1858.14000378534
1858.14000378391
1858.14000378285
1858.14000378217
1858.14000378185
1858.14000378189
1858.1400037823
1858.14000378309
1858.14000378427
1858.14000378586
1858.14000378789
1858.14000379039
1858.1400037934
1858.14000379696
1858.14000380113
1858.14000380599
1858.14000381164
1858.14000381826
1858.14000382611
1858.14000383571
1858.14000384807
1858.14000386546
1858.14000389335
1858.14000394558
1858.14000405776
1858.14000432276
1858.14000497974
1858.14000658169
1858.14001027775
1858.14000329867
1858.14000232703
1858.14000193899
1858.14000179729
1858.14000173964
1858.14000170904
1858.14000168902
1858.14000167425
1858.14000166246
1858.14000165253
1858.14000164389
1858.14000163626
1858.14000162948
1858.14000162344
1858.14000161809
1858.14000161336
1858.14000160922
1858.14000160561
1858.1400016025
1858.14000159986
1858.14000159765
1858.14000159586
1858.14000159445
1858.14000159342
1858.14000159275
1858.14000159244
1858.14000159248
1858.14000159289
1858.14000159367
1858.14000159483
1858.14000159641
1858.14000159841
1858.14000160087
1858.14000160383
1858.14000160732
1858.14000161139
1858.14000161608
1858.14000162146
1858.14000162758
1858.14000163455
1858.14000164253
1858.14000165175
1858.14000166271
1858.14000167638
1858.14000169482
1858.14000172343
1858.14000178051
1858.14000193398
1858.14000238742
1858.14000359174
1858.14000133038
1858.14000103725
1858.14000098497
1858.14000100183
1858.1400010143
1858.14000101331
1858.14000100545
1858.14000099562
1858.14000098589
1858.14000097686
1858.14000096866
1858.14000096127
1858.14000095464
1858.14000094872
1858.14000094345
1858.14000093881
1858.14000093474
1858.1400009312
1858.14000092815
1858.14000092556
1858.1400009234
1858.14000092164
1858.14000092027
1858.14000091926
1858.14000091861
1858.1400009183
1858.14000091835
1858.14000091875
1858.14000091952
1858.14000092067
1858.14000092222
1858.14000092419
1858.14000092661
1858.14000092952
1858.14000093295
1858.14000093695
1858.14000094156
1858.14000094682
1858.14000095278
1858.14000095949
1858.14000096702
1858.14000097538
1858.14000098453
1858.14000099401
1858.14000100216
1858.14000100455
1858.14000099492
1858.14000098409
1858.14000105743
1858.14000142691
1858.14000070978
1858.14000063778
1858.14000069383
1858.14000076104
1858.14000079522
1858.14000080305
1858.14000079857
1858.14000078997
1858.14000078067
1858.14000077179
1858.14000076367
1858.14000075634
1858.14000074977
1858.14000074393
1858.14000073874
1858.14000073418
1858.14000073019
1858.14000072672
1858.14000072374
1858.14000072122
1858.14000071911
1858.14000071739
1858.14000071606
1858.14000071507
1858.14000071444
1858.14000071415
1858.1400007142
1858.1400007146
1858.14000071535
1858.14000071648
1858.14000071799
1858.14000071992
1858.1400007223
1858.14000072515
1858.14000072852
1858.14000073246
1858.140000737
1858.1400007422
1858.1400007481
1858.14000075476
1858.1400007622
1858.14000077043
1858.14000077924
1858.14000078776
1858.14000079317
1858.14000078794
1858.14000075788
1858.14000069502
1858.14000064536
1858.14000074059
1858.14000051994
1858.14000051871
1858.14000060858
1858.14000069077
1858.14000073087
1858.14000074072
1858.14000073676
1858.14000072817
1858.14000071876
1858.1400007098
1858.14000070164
1858.14000069432
1858.1400006878
1858.14000068202
1858.14000067693
1858.14000067245
1858.14000066855
1858.14000066517
1858.14000066227
1858.1400006598
1858.14000065776
1858.1400006561
1858.1400006548
1858.14000065385
1858.14000065324
1858.14000065296
1858.14000065301
1858.1400006534
1858.14000065414
1858.14000065524
1858.14000065672
1858.1400006586
1858.14000066092
1858.14000066372
1858.14000066702
1858.14000067089
1858.14000067537
1858.14000068051
1858.14000068638
1858.14000069303
1858.14000070052
1858.14000070885
1858.14000071779
1858.14000072639
1858.14000073151
1858.14000072466
1858.14000068913
1858.1400006108
1858.14000052254
1858.1400005293
1858.14000046585
1858.1400004869
1858.14000058651
1858.14000067217
1858.140000713
1858.14000072262
1858.1400007182
1858.14000070921
1858.14000069951
1858.14000069039
1858.14000068216
1858.14000067484
1858.14000066837
1858.14000066267
1858.14000065767
1858.1400006533
1858.14000064949
1858.1400006462
1858.14000064339
1858.14000064101
1858.14000063903
1858.14000063742
1858.14000063617
1858.14000063526
1858.14000063467
1858.14000063441
1858.14000063446
1858.14000063485
1858.14000063556
1858.14000063663
1858.14000063807
1858.1400006399
1858.14000064216
1858.14000064488
1858.14000064812
1858.1400006519
1858.14000065631
1858.14000066139
1858.14000066723
1858.14000067389
1858.14000068146
1858.14000068996
1858.1400006992
1858.14000070823
1858.14000071388
1858.14000070739
1858.14000067129
1858.14000058932
1858.14000048975
1858.14000046845
1858.14000045442
1858.14000048235
1858.14000058391
1858.14000066917
1858.14000070889
1858.14000071745
1858.1400007122
1858.14000070264
1858.14000069259
1858.14000068328
1858.14000067499
1858.14000066768
1858.14000066127
1858.14000065567
1858.14000065077
1858.14000064652
1858.14000064282
1858.14000063964
1858.14000063693
1858.14000063463
1858.14000063273
1858.14000063118
1858.14000062998
1858.14000062911
1858.14000062855
1858.1400006283
1858.14000062836
1858.14000062873
1858.14000062942
1858.14000063046
1858.14000063185
1858.14000063362
1858.14000063581
1858.14000063846
1858.1400006416
1858.1400006453
1858.14000064962
1858.14000065463
1858.14000066042
1858.14000066709
1858.14000067474
1858.14000068343
1858.14000069303
1858.14000070264
1858.14000070913
1858.14000070375
1858.14000066877
1858.14000058712
1858.14000048507
1858.14000045503
1858.14000045693
1858.14000048686
1858.14000058766
1858.140000671
1858.14000070882
1858.14000071591
1858.14000070966
1858.14000069946
1858.14000068903
1858.14000067954
1858.14000067119
1858.14000066391
1858.14000065759
1858.1400006521
1858.14000064733
1858.1400006432
1858.14000063964
1858.14000063658
1858.14000063396
1858.14000063177
1858.14000062994
1858.14000062847
1858.14000062732
1858.14000062649
1858.14000062596
1858.14000062572
1858.14000062579
1858.14000062615
1858.14000062682
1858.14000062782
1858.14000062916
1858.14000063087
1858.14000063298
1858.14000063554
1858.14000063858
1858.14000064218