/*--------------------------------*- C++ -*----------------------------------*\
  =========                 |
  \\      /  F ield         | OpenFOAM: The Open Source CFD Toolbox
   \\    /   O peration     | Website:  https://openfoam.org
    \\  /    A nd           | Version:  10
     \\/     M anipulation  |
\*---------------------------------------------------------------------------*/
FoamFile
{
    format      ascii;
    class       volScalarField;
    location    "8.8";
    object      k;
}
// * * * * * * * * * * * * * * * * * * * * * * * * * * * * * * * * * * * * * //

dimensions      [0 2 -2 0 0 0 0];

internalField   nonuniform List<scalar> 
2500
(
6.05367993022212e-10
1.19300897564215e-08
5.12055301492885e-08
8.9526040326677e-08
1.23628982668185e-07
1.52316563627393e-07
1.7518325504299e-07
1.92468907768566e-07
2.04872159013594e-07
2.13329139726204e-07
2.18815041576827e-07
2.22205063543985e-07
2.24203450311061e-07
2.25328827344297e-07
2.25935118972413e-07
2.26248046574603e-07
2.26402988669201e-07
2.26476674738519e-07
2.26510365503599e-07
2.26525180774246e-07
2.26531442590502e-07
2.26533978689095e-07
2.2653495405436e-07
2.26535299012083e-07
2.26535390764552e-07
2.26535353739392e-07
2.26535170963796e-07
2.26534677758182e-07
2.26533421321223e-07
2.26530328000425e-07
2.26522969198805e-07
2.26506061873792e-07
2.26468559667007e-07
2.26388306487259e-07
2.26222772498001e-07
2.25894056433523e-07
2.25266446199788e-07
2.24115956213561e-07
2.22094042840145e-07
2.18692476053222e-07
2.13222559139359e-07
2.048274314874e-07
1.92547266278224e-07
1.75449456817104e-07
1.52817086981707e-07
1.24362238300901e-07
9.04079862515826e-08
5.20257356813205e-08
1.22527541560038e-08
6.30927097803606e-10
1.4968090808899e-08
3.43809030182833e-07
1.50611961286766e-06
2.63457919572253e-06
3.63967568036447e-06
4.4865471801893e-06
5.16301341370267e-06
5.67568418844637e-06
6.04463892812756e-06
6.29704252978846e-06
6.46137040254554e-06
6.5633167119975e-06
6.62366432083777e-06
6.65779773037087e-06
6.67627080299485e-06
6.68585022346573e-06
6.69061622742768e-06
6.69289396518748e-06
6.69394060358849e-06
6.69440323309672e-06
6.69459982722225e-06
6.69467992305443e-06
6.69471094606935e-06
6.69472202568359e-06
6.6947250321018e-06
6.69472390202003e-06
6.69471811074589e-06
6.69470247892428e-06
6.69466282321466e-06
6.69456565913096e-06
6.69433560840765e-06
6.6938095051824e-06
6.69264788146838e-06
6.69017323416999e-06
6.6850916639939e-06
6.67504513688955e-06
6.65594639182896e-06
6.62108352524196e-06
6.56006439022177e-06
6.45781102290543e-06
6.29399296741231e-06
6.04344274597352e-06
5.678117418804e-06
5.17093548798064e-06
4.50126911701647e-06
3.66110455916815e-06
2.6602358285506e-06
1.52988898543874e-06
3.52936162306811e-07
1.55776849264972e-08
5.2999649327292e-08
1.54152812690359e-06
7.64986504931906e-06
1.33643603156746e-05
1.84265338582154e-05
2.26792816815455e-05
2.6070297882425e-05
2.86384288977905e-05
3.04871324058754e-05
3.17532325782789e-05
3.25790061481671e-05
3.30925010299852e-05
3.33973074228319e-05
3.35702431906195e-05
3.36641494822598e-05
3.37130182005519e-05
3.3737421710078e-05
3.37491293574091e-05
3.37545306121093e-05
3.37569280092991e-05
3.37579513224265e-05
3.37583703179613e-05
3.37585335924587e-05
3.37585924071697e-05
3.37586086717243e-05
3.37586030320902e-05
3.37585728996945e-05
3.37584914491491e-05
3.37582853765631e-05
3.37577820820766e-05
3.37565942064098e-05
3.37538859329008e-05
3.37479239673153e-05
3.37352603782233e-05
3.37093318864392e-05
3.36582165802501e-05
3.35613164211385e-05
3.33849109085686e-05
3.30769381289863e-05
3.25620403473587e-05
3.17387659256193e-05
3.04815422501891e-05
2.8650114897533e-05
2.61080394403261e-05
2.27492646012774e-05
1.8528286182688e-05
1.34860118505099e-05
7.76213804321834e-06
1.57899440935591e-06
5.48441408007629e-08
9.3643452692259e-08
2.74271249336821e-06
1.36682982179881e-05
2.38099507358862e-05
3.2747975363838e-05
4.02267702142952e-05
4.61717961017618e-05
5.06641762709162e-05
5.38933749027495e-05
5.61031351170194e-05
5.75439727496898e-05
5.84400483559101e-05
5.89721846468541e-05
5.9274303377589e-05
5.94384993027447e-05
5.952403336694e-05
5.95667953087437e-05
5.95873364309536e-05
5.95968261253981e-05
5.96010446709865e-05
5.96028484425236e-05
5.96035885101101e-05
5.96038776706176e-05
5.96039822782219e-05
5.96040115907449e-05
5.96040022380084e-05
5.96039501972536e-05
5.96038089193707e-05
5.96034510888999e-05
5.960257655182e-05
5.96005111731205e-05
5.95957994719709e-05
5.95854215742821e-05
5.95633677081329e-05
5.95181941202063e-05
5.94291079689797e-05
5.92601756680196e-05
5.89525548777769e-05
5.84153585731424e-05
5.75169285505381e-05
5.60797554784938e-05
5.38835121587942e-05
5.06808149678941e-05
4.62285065119441e-05
4.03330706110498e-05
3.2902924329069e-05
2.3994618352389e-05
1.38367212026111e-05
2.79752994088029e-06
9.62899873717604e-08
1.3367993096408e-07
3.91739441655423e-06
1.94908824680513e-05
3.38608025871599e-05
4.64701152641567e-05
5.69842883530686e-05
6.53201053296326e-05
7.16071520437384e-05
7.61207677024605e-05
7.92073088362222e-05
8.12193200340658e-05
8.24707267817352e-05
8.32141420528436e-05
8.3636452392012e-05
8.38661384416192e-05
8.39858926028706e-05
8.40458223938418e-05
8.40746425225655e-05
8.40879736248891e-05
8.40939081419603e-05
8.40964497360506e-05
8.40974945788024e-05
8.40979039014462e-05
8.40980526151181e-05
8.40980948005627e-05
8.40980824653705e-05
8.4098010667136e-05
8.40978147909981e-05
8.4097318090692e-05
8.40961032519158e-05
8.40932321631756e-05
8.40866779013538e-05
8.40722322029227e-05
8.40415155523728e-05
8.39785639510358e-05
8.38543592359082e-05
8.36187340442832e-05
8.31895059100224e-05
8.24396747535605e-05
8.11851300819415e-05
7.91773187052452e-05
7.61070047943007e-05
7.16254649281435e-05
6.53870317775856e-05
5.71113458902211e-05
4.66558916517722e-05
3.40817298539477e-05
1.96909095388427e-05
3.98231250276816e-06
1.36838992478239e-07
1.72186782892302e-07
5.04636959378603e-06
2.50498915271477e-05
4.34090035329394e-05
5.94563420001084e-05
7.27963712363556e-05
8.33482049816724e-05
9.12936354153127e-05
9.69918391993863e-05
0.000100886203459039
0.00010342433033376
0.000105003145937779
0.000105941392845019
0.000106474668025448
0.000106764906246468
0.000106916355756707
0.000106992218657927
0.000107028739742781
0.000107045653160272
0.000107053192587884
0.00010705642664697
0.000107057758787618
0.00010705828207873
0.000107058473042812
0.000107058527847226
0.000107058513213512
0.000107058423677189
0.000107058178160674
0.000107057554939464
0.000107056029733724
0.000107052422980446
0.000107044184277177
0.000107026015253391
0.00010698736007271
0.000106908099227451
0.000106751646364618
0.000106454727558172
0.000105913652980636
0.000104968117428373
0.000103385578452438
0.000100851752860884
9.69748518469539e-05
9.13114377382754e-05
8.34188313651921e-05
7.29322857229831e-05
5.96557726102949e-05
4.36459942376739e-05
2.52639226197169e-05
5.11649601904109e-06
1.75662285607629e-07
2.08643729766587e-07
6.11555368815957e-06
3.02886106565841e-05
5.2366570964797e-05
7.1597639891192e-05
8.75411384285235e-05
0.000100126993453187
0.000109590766586488
0.000116371876445337
0.000121004202235429
0.000124022921512747
0.000125900956415197
0.000127017417254391
0.000127652316524597
0.000127998093197795
0.000128178664828021
0.000128269196626483
0.000128312823658313
0.000128333051066091
0.000128342079586748
0.00012834595843619
0.000128347559334235
0.000128348189946126
0.000128348421131536
0.00012834848823822
0.000128348471932733
0.000128348366549381
0.000128348076141666
0.00012834733833917
0.000128345531911956
0.00012834125808843
0.000128331490558036
0.000128309938715954
0.000128264063734395
0.000128169956388967
0.000127984123231355
0.000127631321212208
0.000126988208511499
0.000125864028812773
0.000123981918166568
0.000120967349553109
0.000116352658709804
0.00010960689662146
0.000100196839516497
8.76772860335166e-05
7.17980840103416e-05
5.26048192232684e-05
3.05040091014752e-05
6.18742559802197e-06
2.1229284321619e-07
2.42673682450542e-07
7.11419569500742e-06
3.51621093843598e-05
6.06660114636861e-05
8.28127864035507e-05
0.000101130073660322
0.000115564708444498
0.00012640571953833
0.000134167956452947
0.000139468587832504
0.000142922592513472
0.000145071797068293
0.000146349919672836
0.000147077120449489
0.00014747341749196
0.000147680526665603
0.000147784452230887
0.000147834582134267
0.000147857850047594
0.000147868248856307
0.000147872723221351
0.000147874573533602
0.000147875304439921
0.000147875573662724
0.00014787565270068
0.000147875635268308
0.000147875515791226
0.000147875185028308
0.000147874344145673
0.000147872284725041
0.000147867410559221
0.000147856266159212
0.000147831665129579
0.000147779276699638
0.000147671764326759
0.000147459383934419
0.000147056055278085
0.000146320635111235
0.000145034770637795
0.000142881404887659
0.000139431315716815
0.000134147802005148
0.00012641995850917
0.00011563115774687
0.000101260806296681
8.30056492040119e-05
6.08953372764392e-05
3.53701764339e-05
7.18537578895527e-06
2.46390485957067e-07
2.74005564032714e-07
8.03442251522777e-06
3.96379130690474e-05
6.82608824531421e-05
9.30485374017015e-05
0.000113507796845974
0.000129606350123884
0.000141684873507261
0.000150327954432065
0.000156228452611115
0.000160073278394173
0.000162466120621674
0.000163889639481451
0.000164699962573459
0.000165141825965723
0.000165372912765675
0.000165488964267517
0.000165544994747567
0.0001655710286329
0.000165582677754235
0.00016558769751345
0.000165589777377613
0.000165590601259471
0.000165590906177562
0.000165590996701018
0.00016559097863079
0.000165590846677617
0.000165590479871291
0.000165589546918286
0.00016558726163504
0.000165581851473717
0.000165569477174178
0.000165542150511747
0.000165483935340305
0.000165364422427757
0.000165128260630495
0.000164679644019696
0.000163861448138772
0.000162430537185595
0.000160033742206868
0.000156192658359137
0.000150308403126485
0.0001416978193064
0.000129668418670855
0.00011363007454438
9.32287402983774e-05
6.84750415892918e-05
3.98331821262052e-05
8.10328275856098e-06
2.77713593790998e-07
3.0246519164138e-07
8.87111435469678e-06
4.36961342100087e-05
7.51255431072522e-05
0.000102278842688053
0.000124650785459533
0.000142232018453681
0.000155411882160462
0.000164838438939951
0.000171272486575567
0.000175465074866495
0.000178074882036257
0.000179628019536348
0.000180512543878509
0.000180995146801791
0.000181247709443761
0.000181374643426023
0.000181435981335343
0.000181464509540417
0.000181477289589821
0.000181482804520471
0.000181485093846048
0.000181486003188418
0.000181486341306952
0.000181486442801445
0.000181486424528739
0.00018148628159098
0.000181485882820637
0.000181484868263003
0.000181482382974985
0.000181476498287898
0.000181463034804164
0.000181433292962554
0.000181369911275283
0.000181239750615172
0.000180982475766303
0.000180493632482594
0.000179601881564695
0.000178042038494708
0.000175428796790102
0.000171239956482621
0.00016482119753525
0.000155424783704131
0.000142290067942937
0.000124763741345876
0.000102444236735299
7.53215437672312e-05
4.38757798376979e-05
8.93668937256685e-06
3.06112752150979e-07
3.279702540493e-07
9.62179103153425e-06
4.73290105000747e-05
8.12540224694563e-05
0.000110503027288265
0.000134564985753569
0.000153454104126784
0.000167604577958386
0.000177721391226356
0.000184625581998401
0.000189124774126821
0.000191926034391152
0.000193593679632456
0.000194543844906823
0.000195062544605485
0.000195334169807155
0.000195470782803527
0.00019553685186457
0.000195567609285534
0.000195581403135998
0.000195587363634845
0.000195589842395104
0.00019559082959476
0.000195591198304147
0.000195591310174211
0.000195591292053196
0.00019559113953615
0.000195590712641355
0.000195589626351468
0.000195586965480981
0.000195580664408292
0.000195566245051456
0.000195534382646877
0.000195466462015228
0.000195326941430213
0.000195051097138092
0.000194526857474062
0.000193570360280291
0.000191896993588705
0.000189093128978001
0.000184597956418583
0.000177708238936786
0.000167619146715167
0.0001535095242292
0.000134669455967939
0.000110653781496676
8.1431452054022e-05
4.74923098807167e-05
9.68365576162405e-06
3.31526556358756e-07
3.50523163462637e-07
1.02864186437994e-05
5.05399103923819e-05
8.6658116910955e-05
0.000117743079980666
0.000143282467939373
0.00016331348841898
0.000178310863497363
0.000189029896384853
0.000196344399041048
0.000201111354155747
0.000204079973219502
0.000205847835239989
0.000206855530460296
0.00020740591771472
0.000207694307341977
0.000207839449702937
0.000207909697416211
0.000207942428817707
0.000207957123132477
0.000207963480892939
0.000207966129409933
0.000207967186889447
0.000207967583516509
0.000207967705087516
0.000207967687405929
0.000207967526616314
0.000207967075186947
0.000207965926398724
0.000207963112789554
0.000207956449749263
0.000207941199433615
0.000207907492885834
0.000207835622901767
0.000207687953785621
0.000207395935357386
0.000206840852319408
0.000205827918625981
0.000204055574078004
0.000201085480482253
0.000196323134608945
0.000189022586102826
0.000178329079349229
0.000163368373276568
0.000143380519250756
0.000117881078029197
8.68184953840243e-05
5.06877399672159e-05
1.03445744955884e-05
3.53974626606541e-07
3.70200885590426e-07
1.08671244938454e-05
5.33419095982822e-05
9.136488509239e-05
0.000124040252007318
0.000150857344799211
0.000171874977425398
0.000187603816456697
0.000198843032423515
0.000206512117673035
0.000211510646124215
0.000214624153490895
0.000216478885438742
0.000217536521421813
0.000218114461435926
0.000218417454763787
0.000218570042341836
0.000218643945896784
0.00021867840879305
0.000218693895378165
0.000218700604001644
0.00021870340321214
0.000218704523532171
0.000218704945390173
0.000218705075929898
0.000218705058908309
0.000218704891048637
0.000218704418414759
0.000218703215685265
0.00021870027048643
0.000218693295859215
0.000218677330307396
0.000218642035946218
0.000218566763934243
0.00021841207199256
0.000218106107348109
0.000217524419073608
0.000216462788930604
0.000214605022140124
0.000211491443540366
0.000206498452688578
0.000198843197632695
0.000187627743471634
0.000171931818638095
0.000150951828165625
0.000124168526548725
9.15110644596301e-05
5.34762786297632e-05
1.09218908421215e-05
3.73547464861556e-07
3.87142274904403e-07
1.13678379238313e-05
5.57560643179578e-05
9.54137344379619e-05
0.000129451199334568
0.000157361209325339
0.000179222238829093
0.000195576283629745
0.000207260237207148
0.000215232658639803
0.000220429464400005
0.000223667164795894
0.00022559645622753
0.000226697020226936
0.000227298683924166
0.000227614274949338
0.000227773298337692
0.000227850369367798
0.000227886336383664
0.000227902513320315
0.000227909528841714
0.000227912460534174
0.000227913636498288
0.000227914080934181
0.000227914219673689
0.000227914203470825
0.000227914029637182
0.00022791353886081
0.000227912290042186
0.000227909232625516
0.000227901992532847
0.000227885417714018
0.000227848770427873
0.000227770598354122
0.000227609916870915
0.000227292052562615
0.000226687654642949
0.000225584446090294
0.000223653728153871
0.000220417595518656
0.000215227586730304
0.000207269313071405
0.000195607908760045
0.00017928365319553
0.000157455362233663
0.000129573427933197
9.55493634819659e-05
5.5879695166604e-05
1.14197508551185e-05
3.90393895419793e-07
4.01533883633062e-07
1.17938853064652e-05
5.78095158942944e-05
9.88533018994105e-05
0.000134043913167173
0.000162878362448933
0.000185452529529549
0.000202335264038266
0.000214395461212449
0.000222624686727324
0.000227989515830418
0.000231332583529491
0.000233325219263375
0.000234462310751211
0.000235084195857684
0.000235410545297504
0.000235575076415725
0.000235654864483382
0.000235692125134169
0.000235708897657791
0.000235716178966907
0.000235719225978705
0.000235720450724774
0.000235720915160741
0.000235721061313992
0.00023572104603432
0.000235720867215963
0.000235720361085815
0.000235719073309635
0.00023571592122659
0.000235708457413662
0.000235691369237679
0.000235653581714045
0.000235572964394947
0.000235407230230366
0.000235079322966613
0.000234455751412382
0.000233317427947959
0.000231325086282791
0.000227985414790888
0.000222628942504556
0.000214414626097574
0.000202376368349023
0.000185521034929013
0.000162975476686704
0.000134163993747787
9.89823720329319e-05
5.7925482440741e-05
1.18436071354132e-05
4.04707131109925e-07
4.13595281322122e-07
1.21515689583657e-05
5.95335551499188e-05
0.000101738319474232
0.00013789366891176
0.000167501087373629
0.000190671488875106
0.000207996368757097
0.000220371402743202
0.000228815699101601
0.000234321395079781
0.000237752911352865
0.000239798796802024
0.000240966644243372
0.000241605586010489
0.000241941027876105
0.000242110223827154
0.000242192318591881
0.000242230680454462
0.000242247961565604
0.000242255470717122
0.000242258617089407
0.000242259884166447
0.00024226036613776
0.000242260518921284
0.000242260504624481
0.000242260321706507
0.00024225980273824
0.000242258482415212
0.000242255251396451
0.000242247601225317
0.000242230085503239
0.000242191348077974
0.000242108692721191
0.000241938745101866
0.000241602458885773
0.000240962883924996
0.000239795242024306
0.000237751436816755
0.000234325283794208
0.000228829758014456
0.000220401543973313
0.000208048437072119
0.000190749336481526
0.000167604252386368
0.000138015385794238
0.000101864802356961
5.96449885459587e-05
1.21998118408125e-05
4.16710501833681e-07
4.23564824072934e-07
1.24477569691272e-05
6.0961758734537e-05
0.000104126629545639
0.000141079192962745
0.000171325193270171
0.000194988236883516
0.000212678608809278
0.000225314085453108
0.000233936464383132
0.000239558935500073
0.000243063871806223
0.000245154026150642
0.000246347485432239
0.000247000657295774
0.000247343700158019
0.00024751680439351
0.000247600836467347
0.00024764012573557
0.000247657836533277
0.000247665538937223
0.000247668770020039
0.000247670073445396
0.000247670570630476
0.000247670729279981
0.000247670715989897
0.000247670529756893
0.0002476700001978
0.000247668653032965
0.000247665357030574
0.000247657553582231
0.000247639686247486
0.000247600167348282
0.000247515834389831
0.000247342416411441
0.000246999225125408
0.000246346455490822
0.000245154631502002
0.000243068366474264
0.000239570847631743
0.000233960557183388
0.000225355790350317
0.000212742779636981
0.000195077302419331
0.000171437118466302
0.000141205977193274
0.000104254210487713
6.10716252075071e-05
1.24952228502535e-05
4.26643747138097e-07
4.31686617548162e-07
1.26895054671614e-05
6.21282850492869e-05
0.000106076477125949
0.000143679200204992
0.000174445999073739
0.000198510961101413
0.000216499704216169
0.000229347978025175
0.000238116016985335
0.000243834123162636
0.000247399274665281
0.000249525794415375
0.000250740330290129
0.000251405235157789
0.000251754558439368
0.000251930899385494
0.000252016539940645
0.000252056601390852
0.000252074671137832
0.00025208253563221
0.000252085838140743
0.000252087172437863
0.000252087682681453
0.000252087846466395
0.000252087834179552
0.000252087645321099
0.000252087107160904
0.000252085738184422
0.000252082389455483
0.000252074461734493
0.000252056309307181
0.000252016156448949
0.000251930461591575
0.000251754224231409
0.00025140541925655
0.000250741916161397
0.000249530411069426
0.000247409575830897
0.000243853935008309
0.000238150157734519
0.000229401548866308
0.000216576758202537
0.000198612692856738
0.000174568912189508
0.000143813980899014
0.000106208381542002
6.22392351725876e-05
1.27368431195019e-05
4.34750560819356e-07
4.3819918760684e-07
1.28837284005631e-05
6.3066390208433e-05
0.000107644165157369
0.000145769404978478
0.000176954871728696
0.000201343115000145
0.000219572043479462
0.000232591789941948
0.000241477343924205
0.000247272713460427
0.000250886588865093
0.000253042585236489
0.000254274237652049
0.000254948690796264
0.000255303136576943
0.000255482123951476
0.000255569083183063
0.000255609779591936
0.000255628145526582
0.000255636144337414
0.000255639506359292
0.000255640866575039
0.000255641387903135
0.000255641556137509
0.000255641544830537
0.000255641353948116
0.00025564080893451
0.000255639422547012
0.000255636031774981
0.000255628005006048
0.000255609625273064
0.000255568966541012
0.000255482183853164
0.000255303692199432
0.000254950394478964
0.000254278294136872
0.0002530510140704
0.000250902454247779
0.000247300180106949
0.000241521369117782
0.000232657279322421
0.000219662425466071
0.000201458532003846
0.000177090484916747
0.000145914542196929
0.000107783069086448
6.31806739490173e-05
1.29315068177833e-05
4.41267842986245e-07
4.43326129527566e-07
1.30369230435206e-05
6.38071957386872e-05
0.000108882115869804
0.000147420055262066
0.000178936373354684
0.000203580286048216
0.000221999354555803
0.000235155006672495
0.000244133829099372
0.000249990616454221
0.000253643290948972
0.000255822804968479
0.000257068142454859
0.000257750247167009
0.000258108808091545
0.000258289927199587
0.000258377951777754
0.000258419162852324
0.000258437769773568
0.00025844587837216
0.000258449289329711
0.000258450671032399
0.000258451201659349
0.000258451373709679
0.000258451363346194
0.000258451170961756
0.000258450620621383
0.000258449220652655
0.000258445797100918
0.000258437693103586
0.000258419135981412
0.000258378081925627
0.000258290447833628
0.000258110189179357
0.000257753365021731
0.000257074508354992
0.000255834818327632
0.000253664429018073
0.000250025411076694
0.000244187444555316
0.000235232268223731
0.000222103221977073
0.000203710016518896
0.00017908590451599
0.000147577340154627
0.000109030126645178
6.39266333234994e-05
1.30856191538927e-05
4.46416876948116e-07
4.47268790540822e-07
1.31549533013355e-05
6.43787145367728e-05
0.000109837343548649
0.000148693993490049
0.000180466019284633
0.000205307734632107
0.000223874088247252
0.000237135165258838
0.000246186456221186
0.000252091052355833
0.00025577399062815
0.000257971890037463
0.000259227952430969
0.000259916069661313
0.000260277873580594
0.00026046067789995
0.00026054954755779
0.000260591168443476
0.000260609968095112
0.000260618164962782
0.000260621615533359
0.000260623014792101
0.000260623553119289
0.000260623728408748
0.000260623718944897
0.000260623525510376
0.000260622971174059
0.000260621560952586
0.000260618112644648
0.000260609950271221
0.000260591258814517
0.000260549904672769
0.000260461622666404
0.000260280016094089
0.000259920495965937
0.000259236464062996
0.00025798725229547
0.000255800090149081
0.000252132806187479
0.000246249287766408
0.000237223913644303
0.000223991377048137
0.000205452082671361
0.000180630253399215
0.000148864698209589
0.000109996033280125
6.45047102053417e-05
1.3204951020394e-05
4.50396444817074e-07
4.502008592037e-07
1.32428876795308e-05
6.4805119915278e-05
0.000110550311628421
0.000149645207392534
0.000181608603423506
0.000206598555519465
0.000225275462607302
0.000238615816980047
0.00024772171592257
0.000253662422045061
0.000257368278011568
0.000259580139869145
0.00026084437257722
0.000261537085757857
0.000261901377727846
0.000262085480097414
0.00026217500350602
0.000262216942942414
0.000262235893229369
0.000262244159543483
0.00026224764154382
0.000262249054891348
0.000262249599498898
0.000262249777508458
0.000262249768897901
0.000262249574806122
0.000262249017637806
0.00026224760006932
0.000262244133989968
0.000262235929611198
0.000262217141131644
0.000262175569299345
0.000262086815173908
0.000261904222263095
0.00026154272183878
0.000260854875755505
0.000259598625996977
0.000257399035377791
0.000253710762529619
0.000247793359774307
0.000238715690776629
0.000225405961299637
0.000206757583162229
0.000181787977502288
0.000149830165910866
0.000110720784636453
6.49387040990099e-05
1.32944847684213e-05
4.53377728438967e-07
4.52264611995645e-07
1.33048852145653e-05
6.51062278959924e-05
0.000111054125122942
0.000150317807141022
0.000182417016456689
0.000207512379822828
0.000226268081186169
0.000239665086556952
0.000248810124401835
0.00025477679868272
0.000258499197831198
0.00026072118029803
0.000261991362091454
0.00026268743822986
0.000263053560440866
0.000263238623141099
0.000263328633211626
0.000263370811401531
0.000263389875465526
0.000263398194718571
0.000263401700957305
0.000263403125338027
0.000263403674968983
0.000263403855235154
0.000263403847432656
0.000263403653028501
0.000263403094057141
0.000263401671709696
0.000263398194020764
0.000263389962045342
0.000263371109307095
0.000263329391978988
0.000263240319451644
0.000263057055773546
0.000262694198572733
0.000262003722198799
0.000260742591702795
0.00025853434081364
0.000254831383418711
0.000248890193259457
0.000239775707764732
0.000226411503812228
0.000207685991727672
0.000182611711916415
0.000150517508257932
0.000111237100500263
6.52481132235413e-05
1.33583042534122e-05
4.55500734462407e-07
4.53568496724894e-07
1.33441205558458e-05
6.52971539868543e-05
0.000111373996181688
0.000150745348785586
0.000182931463872405
0.000208094515154958
0.000226901016420173
0.000240334714956916
0.000249505237930444
0.000255488923068761
0.000259222232327424
0.000261450938553558
0.000262725104566868
0.000263423452542876
0.000263790822675676
0.000263976546656555
0.000264066895395797
0.000264109241647524
0.000264128386831324
0.000264136744396016
0.00026414026850046
0.000264141701205975
0.000264142254745221
0.000264142436855286
0.000264142429819716
0.000264142235412464
0.00026414167556582
0.00026414025075986
0.00026413676702564
0.000264128520440928
0.000264109632903574
0.000264067834822279
0.000263978581383496
0.000263794928494153
0.000263431269533462
0.000262739214433198
0.000261475115599127
0.000259261539091493
0.000255549467489603
0.000249593399270861
0.000240455739554716
0.000227057066118394
0.000208282534426013
0.00018314149162566
0.000150960024300165
0.000111569888266396
6.54477915827915e-05
1.33995205135649e-05
4.56871924316775e-07
4.54185719554563e-07
1.33627389971969e-05
6.53881041731861e-05
0.000111526918649877
0.000150950420532933
0.000183178983836447
0.00020837541316048
0.000227207240692334
0.00024065946436367
0.00024984303955471
0.000255835577905654
0.000259574667544387
0.00026180700448997
0.000263083366221949
0.00026378299340831
0.00026415108212693
0.00026433719584654
0.000264427749083618
0.000264470199455766
0.00026448939632706
0.000264497779098109
0.000264501315414439
0.000264502754079347
0.000264503310574711
0.000264503494185006
0.000264503487885048
0.000264503293742477
0.000264502733842494
0.000264501308680378
0.000264497824012214
0.000264489574824758
0.000264470679773442
0.000264428860867683
0.000264339553561027
0.000264155771035669
0.000263791820777662
0.000263099151839741
0.000261833835605419
0.000259617980557418
0.000255901875856051
0.000249939044329629
0.000240790620688113
0.000227375658662522
0.000208577640532396
0.000183404251165699
0.000151180114413292
0.000111735900757004
6.55477287123786e-05
1.34202243117443e-05
4.57562730524638e-07
4.54153464043303e-07
1.3361830572886e-05
6.53842559863121e-05
0.00011152148957229
0.000150944423305726
0.000183173198249177
0.000208370395607751
0.000227203331148589
0.000240656805750555
0.000249841613334008
0.00025583525200224
0.000259575247860503
0.000261808279964395
0.000263085142100975
0.000263785108895245
0.000264153415963662
0.000264339663308339
0.000264430294790785
0.000264472789288381
0.000264492010333675
0.0002645004061225
0.000264503949430809
0.000264505391894568
0.000264505950488588
0.00026450613529462
0.000264506129706022
0.000264505936079391
0.000264505376907053
0.000264503953412486
0.00026450047276372
0.000264492232632588
0.000264473356546341
0.000264431574859776
0.000264342336416698
0.000264158674332508
0.0002637949232344
0.000263102565181903
0.00026183770572702
0.000259622479690255
0.000255907181820078
0.000249945305288
0.000240797908023883
0.000227383915182753
0.000208586633752216
0.000183413539710416
0.000151189029230316
0.000111743534426625
6.55529181868453e-05
1.34214578262842e-05
4.57608688034267e-07
4.53472718614866e-07
1.33414239103266e-05
6.52857256410768e-05
0.000111357848745731
0.000150727483800747
0.000182914204632314
0.000208079529578653
0.000226889332331647
0.000240326772220973
0.000249500991004263
0.000255487982650757
0.00025922401933845
0.000261454820943427
0.000262730496600451
0.000263429869929732
0.00026379789971693
0.000263984027572049
0.000264074612869246
0.00026411709253624
0.000264136310800226
0.000264144707700725
0.000264148252915134
0.000264149697075763
0.000264150256933763
0.000264150442639086
0.000264150437742546
0.000264150244893077
0.000264149687256173
0.000264148267516452
0.000264144795979434
0.00026413657684989
0.000264117746765802
0.000264076061373788
0.000263987016329285
0.00026380372772545
0.000263440670778917
0.000262749554726708
0.000261486834364644
0.000259275153885404
0.000255565510638883
0.000249612310897426
0.000240477725317242
0.000227081941965338
0.000208309588275419
0.000183169386428369
0.000150986747336587
0.000111592725409836
6.5463284317818e-05
1.34031971951696e-05
4.57008786773483e-07
4.52108549509115e-07
1.33004932935339e-05
6.50875879550101e-05
0.00011102769695511
0.000150288467850983
0.000182388584414848
0.000207487632275824
0.000226248758282626
0.000239651958834223
0.000248803149890485
0.000254775352032874
0.00025850232567156
0.000260727831555034
0.000262000556941641
0.000262698363462817
0.000263065600296725
0.000263251346065594
0.000263341756479167
0.0002633841605287
0.000263403348303576
0.000263411734108982
0.000263415276023143
0.000263416719727927
0.000263417279992535
0.000263417466293334
0.000263417462076548
0.000263417270295285
0.000263416715076511
0.00026341530135191
0.00026341184440601
0.0002634036590723
0.000263384903848816
0.00026334337762976
0.000263254658220756
0.000263072011230623
0.000262710172003204
0.000262021281266649
0.000260762474238531
0.000258557411831344
0.000254858525825028
0.000248922125492396
0.000239812743858632
0.000226453295309668
0.000207731303515915
0.000182658273914642
0.000150561950282091
0.00011127493154007
6.52736755846442e-05
1.33643531238896e-05
4.55725680809754e-07
4.499903647971e-07
1.32369677530341e-05
6.47799289292355e-05
0.000110514386686677