/*--------------------------------*- C++ -*----------------------------------*\
  =========                 |
  \\      /  F ield         | OpenFOAM: The Open Source CFD Toolbox
   \\    /   O peration     | Website:  https://openfoam.org
    \\  /    A nd           | Version:  10
     \\/     M anipulation  |
\*---------------------------------------------------------------------------*/
FoamFile
{
    format      ascii;
    class       volScalarField;
    location    "8.8";
    object      nut;
}
// * * * * * * * * * * * * * * * * * * * * * * * * * * * * * * * * * * * * * //

dimensions      [0 2 -1 0 0 0 0];

internalField   nonuniform List<scalar> 
2500
(
4.73546170812418e-15
9.33162441282248e-14
4.0053301638618e-13
7.00289274159135e-13
9.67058974197222e-13
1.19146891035045e-12
1.37034516665915e-12
1.50556339240643e-12
1.60258858421441e-12
1.66874371409481e-12
1.71165736300792e-12
1.73817587199331e-12
1.75380826182876e-12
1.76261151887448e-12
1.76735422863489e-12
1.76980210219322e-12
1.7710141343089e-12
1.77159054453015e-12
1.77185409353216e-12
1.77196998833072e-12
1.77201897366886e-12
1.77203881435533e-12
1.77204644586006e-12
1.77204914531216e-12
1.77204986411424e-12
1.77204957528448e-12
1.77204814572639e-12
1.77204428755522e-12
1.77203445867553e-12
1.77201026046894e-12
1.77195269531179e-12
1.77182043627013e-12
1.77152707461794e-12
1.77089929460023e-12
1.76960440746874e-12
1.76703303126615e-12
1.76212355744535e-12
1.75312385506104e-12
1.73730742153588e-12
1.7106985972447e-12
1.66790998471588e-12
1.6022386871269e-12
1.50617632876384e-12
1.37242749927733e-12
1.19538419288938e-12
9.72794744787442e-13
7.07188047039329e-13
4.06948699342903e-13
9.58400893607585e-14
4.93539758505117e-15
4.69535331452306e-13
2.42675003683888e-11
1.0631691815214e-10
1.8598700034522e-10
2.56953005062825e-10
3.16749566754275e-10
3.64514724069929e-10
4.00714424832573e-10
4.26766252684292e-10
4.44588316514795e-10
4.56191321900732e-10
4.63389580880943e-10
4.67650594130627e-10
4.70060664432627e-10
4.71364992345431e-10
4.72041363367539e-10
4.72377873726777e-10
4.72538696363968e-10
4.72612595827291e-10
4.72645260643354e-10
4.72659141761121e-10
4.72664797392219e-10
4.72666988142186e-10
4.72667770675405e-10
4.7266798317199e-10
4.72667903559331e-10
4.72667494750142e-10
4.72666391091373e-10
4.72663591166952e-10
4.72656730773988e-10
4.72640487756417e-10
4.72603341585313e-10
4.72521323794539e-10
4.7234659824824e-10
4.71987806753488e-10
4.71278454705837e-10
4.69929949025817e-10
4.67468371613371e-10
4.631599389063e-10
4.5593999230424e-10
4.44372974493765e-10
4.26681761841288e-10
4.00886186524001e-10
3.65074024638067e-10
3.17788954976103e-10
2.58465872389818e-10
1.87798227240194e-10
1.07994755172248e-10
2.49117119222052e-11
4.88658395617286e-13
1.66663788865191e-12
4.3632342293246e-10
1.50383825651675e-07
2.62746218270346e-07
3.62293018770898e-07
4.45926925156308e-07
5.12615491893057e-07
5.63121188935658e-07
5.99478225411945e-07
6.24377429854279e-07
6.40616974011756e-07
6.50715181732144e-07
6.56709334507672e-07
6.60110161653009e-07
6.61956838557323e-07
6.62917840361592e-07
6.6339773175055e-07
6.63627959956468e-07
6.63734174255035e-07
6.63781318521947e-07
6.63801441916107e-07
6.63809681651845e-07
6.63812892711191e-07
6.63814049540147e-07
6.63814369608136e-07
6.63814258898544e-07
6.63813666482665e-07
6.63812064890464e-07
6.63808012648058e-07
6.63798115637009e-07
6.63774756576863e-07
6.63721499353621e-07
6.63604259100922e-07
6.63355232542768e-07
6.62845352337188e-07
6.61840170879788e-07
6.59934617603411e-07
6.56465553390916e-07
6.50409125053486e-07
6.4028331662204e-07
6.24092902003337e-07
5.99368235956269e-07
5.63350917877291e-07
5.13357579849966e-07
4.47302979193623e-07
3.64293660185996e-07
2.65137877613445e-07
1.52590785189117e-07
4.46927235605972e-10
1.72464075604641e-12
2.95160229714628e-12
7.78153189265063e-10
2.69337381720211e-07
4.69229427803562e-07
6.45417815265083e-07
7.92848978442449e-07
9.10046627681197e-07
9.98607525959784e-07
1.06226614469671e-06
1.10582766201814e-06
1.13423089546198e-06
1.15189502938315e-06
1.16238479758054e-06
1.16834027382613e-06
1.17157693765877e-06
1.17326299067503e-06
1.17410591164797e-06
1.17451081513926e-06
1.17469787400366e-06
1.1747810290055e-06
1.17481658467168e-06
1.17483117299619e-06
1.17483687319777e-06
1.17483893549561e-06
1.17483951356638e-06
1.17483932944539e-06
1.17483830382271e-06
1.1748355191923e-06
1.17482846599827e-06
1.17481122766172e-06
1.17477051581098e-06
1.17467764029345e-06
1.17447307361169e-06
1.17403835110519e-06
1.17314789161859e-06
1.17139181892916e-06
1.16806178855195e-06
1.1619978486667e-06
1.15140832442147e-06
1.13369776043319e-06
1.10536673697716e-06
1.06207163596162e-06
9.98935385507954e-07
9.11164342110427e-07
7.94944108649343e-07
6.4847162804231e-07
4.728685152182e-07
2.72655765243333e-07
7.93703208362606e-10
3.03501317706821e-12
4.22203360841632e-12
1.11368415905985e-09
3.84850157877893e-07
6.68650000791536e-07
9.1770329898816e-07
1.1253829422066e-06
1.2900368357805e-06
1.4142219623186e-06
1.50337659630177e-06
1.56434247701313e-06
1.6040836259788e-06
1.62880109424886e-06
1.64348470502018e-06
1.65182592346606e-06
1.6563625109483e-06
1.65872779130195e-06
1.65991146630715e-06
1.66048069100225e-06
1.66074399197169e-06
1.66086120364652e-06
1.66091140228721e-06
1.66093203898008e-06
1.6609401237013e-06
1.66094306116488e-06
1.66094389458657e-06
1.6609436511691e-06
1.66094223329614e-06
1.66093836482374e-06
1.66092855495811e-06
1.66090456135246e-06
1.6608478554774e-06
1.66071840377184e-06
1.66043308874899e-06
1.65982640595175e-06
1.65858304706613e-06
1.6561298630315e-06
1.65147596877956e-06
1.64299811041298e-06
1.62818776705716e-06
1.60340830212026e-06
1.56375007744605e-06
1.50310467020301e-06
1.4145835336521e-06
1.29135852747644e-06
1.12789215818413e-06
9.21371923946032e-07
6.73012205326757e-07
3.88798924556185e-07
1.13213497525071e-09
4.32178526604455e-12
5.44693293602445e-12
1.4369309801887e-09
4.95393091100963e-07
8.58535402870344e-07
1.17597553729416e-06
1.43986888527778e-06
1.64860725304464e-06
1.80578464651604e-06
1.91850627102964e-06
1.99554372670131e-06
2.04575194690551e-06
2.0769831954304e-06
2.09554293668383e-06
2.10609174525397e-06
2.11183296676402e-06
2.11482878578007e-06
2.11632942196255e-06
2.11705183928189e-06
2.11738639974168e-06
2.11753553509911e-06
2.11759950707046e-06
2.11762585782558e-06
2.11763620904342e-06
2.11763998660353e-06
2.1176410708186e-06
2.11764078150703e-06
2.11763901058818e-06
2.11763415433233e-06
2.1176218269522e-06
2.1175916577966e-06
2.11752031416715e-06
2.11735734701469e-06
2.11699794984008e-06
2.1162333183967e-06
2.11466546814021e-06
2.11157067841612e-06
2.10569730789414e-06
2.09499421667558e-06
2.07629029155561e-06
2.04498537758616e-06
1.99486222025947e-06
1.91817017754671e-06
1.80613669399246e-06
1.65000415941953e-06
1.44255711758717e-06
1.17991981187419e-06
8.6322192279018e-07
4.99624747088382e-07
1.45689229192123e-09
5.55683876696101e-12
6.60803912007061e-12
1.74340032200359e-09
5.99676366910174e-07
1.03685382606472e-06
1.41767937589977e-06
1.73340841598095e-06
1.98264663682704e-06
2.17005733731442e-06
2.30434250257344e-06
2.3960750349591e-06
2.45585342379309e-06
2.49304311881979e-06
2.51515166880561e-06
2.52772411308419e-06
2.53457124968818e-06
2.53814695287407e-06
2.53993967057073e-06
2.54080357435505e-06
2.54120411722097e-06
2.54138289951045e-06
2.54145970815452e-06
2.54149140899779e-06
2.54150389637684e-06
2.54150847436293e-06
2.54150980327308e-06
2.5415094804842e-06
2.5415073938197e-06
2.54150164338391e-06
2.54148703378868e-06
2.54145126350068e-06
2.54136663400993e-06
2.54117321819093e-06
2.54074644900481e-06
2.53983803136214e-06
2.53797451090152e-06
2.53429461918502e-06
2.52730836641947e-06
2.51457327821339e-06
2.4923118753586e-06
2.45504146493926e-06
2.39534525589026e-06
2.30396191544545e-06
2.17037668791524e-06
1.98402963710111e-06
1.73610421010685e-06
1.42164804711623e-06
1.0415704232687e-06
6.03939801045444e-07
1.76388142959727e-09
6.72356239342705e-12
7.69211352155322e-12
2.0296924989702e-09
6.96698077283643e-07
1.20207911904753e-06
1.64095161856148e-06
2.00394093701589e-06
2.28998871151238e-06
2.50482168377762e-06
2.6586428032095e-06
2.76368278138055e-06
2.83212878149427e-06
2.87471815703914e-06
2.90004579216409e-06
2.91445616711596e-06
2.92230926090928e-06
2.92641336569455e-06
2.92847276591051e-06
2.92946614393213e-06
2.92992722200681e-06
2.93013328498011e-06
2.93022194893097e-06
2.93025861464184e-06
2.930273098264e-06
2.93027843319344e-06
2.93027999942338e-06
2.93027965402556e-06
2.93027728655327e-06
2.93027073230269e-06
2.9302540696053e-06
2.93021326047505e-06
2.93011667436698e-06
2.92989583697998e-06
2.92940834189146e-06
2.92837020885186e-06
2.92623973257854e-06
2.92203117358171e-06
2.91403874151285e-06
2.89946549087766e-06
2.87398444166254e-06
2.83131260513059e-06
2.76294419013194e-06
2.65824340947671e-06
2.50510382217321e-06
2.29130543034392e-06
2.00653141663049e-06
1.64477301615737e-06
1.20662251029634e-06
7.00819588402342e-07
2.04999259507153e-09
7.80987366247226e-12
8.6898680507084e-12
2.29339078872926e-09
7.85760416246477e-07
1.353202668156e-06
1.84462159549023e-06
2.25023183956203e-06
2.56938970655785e-06
2.8088487908107e-06
2.98019900582601e-06
3.09717680489287e-06
3.17340054984572e-06
3.22083858593968e-06
3.24905975749025e-06
3.2651243361896e-06
3.27388422452735e-06
3.27846548719808e-06
3.28076618925887e-06
3.28187698332202e-06
3.28239309987026e-06
3.28262404112334e-06
3.28272355660369e-06
3.28276478932662e-06
3.28278112254956e-06
3.2827871674621e-06
3.28278896205166e-06
3.28278860382381e-06
3.28278598793434e-06
3.28277871618558e-06
3.28276022077313e-06
3.28271491580857e-06
3.28260766088537e-06
3.28236234331079e-06
3.2818205977747e-06
3.28066649269961e-06
3.27829716914541e-06
3.27361529621405e-06
3.26472152744306e-06
3.24850087315138e-06
3.2201331555202e-06
3.17261675705796e-06
3.09646719445719e-06
2.97981140700546e-06
2.80910543826759e-06
2.57062019293095e-06
2.25265590948751e-06
1.84819383893188e-06
1.35744766412871e-06
7.89630418419252e-07
2.31304002097502e-09
8.80741672894628e-12
9.59556404683405e-12
2.53298919925176e-09
8.66457341340104e-07
1.48969999496197e-06
2.02815442248575e-06
2.47179503457523e-06
2.8204345050965e-06
3.08179341183083e-06
3.26872323787652e-06
3.39631099666258e-06
3.47945028329872e-06
3.53120285628217e-06
3.56200159823362e-06
3.57954171514938e-06
3.58911172375767e-06
3.59412003399122e-06
3.59663712996102e-06
3.59785345768427e-06
3.59841917027015e-06
3.59867259771341e-06
3.59878195827333e-06
3.59882735532385e-06
3.59884538746041e-06
3.59885209229504e-06
3.59885410490323e-06
3.59885374255737e-06
3.59885090814064e-06
3.59884300062042e-06
3.59882288213128e-06
3.59877359922424e-06
3.59865690652879e-06
3.59838992675033e-06
3.59780014786342e-06
3.59654329218895e-06
3.5939622115948e-06
3.58886045900023e-06
3.57916670508108e-06
3.56148328649695e-06
3.5305515745301e-06
3.47873089595311e-06
3.39566593253667e-06
3.26838134868594e-06
3.08204925740296e-06
2.82158563077345e-06
2.4740349246936e-06
2.03143404246927e-06
1.49358624895933e-06
8.70018899227317e-07
2.55170788152459e-09
9.71124154151126e-12
1.04066642341115e-11
2.74780666571629e-09
9.38646219725066e-07
1.6114743615718e-06
2.191568035546e-06
2.66878796075764e-06
3.04341487480641e-06
3.32406015704911e-06
3.52470591861431e-06
3.66163591781057e-06
3.7508677899415e-06
3.80642477062834e-06
3.83949891408595e-06
3.85834338276813e-06
3.86863066315088e-06
3.8740177565354e-06
3.87672717653851e-06
3.8780375114904e-06
3.87864751730036e-06
3.87892108787958e-06
3.87903930114055e-06
3.87908846180634e-06
3.87910804068843e-06
3.87911535319679e-06
3.87911757187553e-06
3.87911721248222e-06
3.87911418765739e-06
3.87910572118131e-06
3.87908417708866e-06
3.8790314046956e-06
3.87890643695521e-06
3.87862046090248e-06
3.87798854019601e-06
3.87664148343711e-06
3.87387439792851e-06
3.86840362842471e-06
3.85800647545091e-06
3.83903642771291e-06
3.80584881269922e-06
3.75024018152314e-06
3.66108802993769e-06
3.52444507856238e-06
3.32434910646838e-06
3.04451402443266e-06
2.67085990170849e-06
2.19455785164981e-06
1.61499303763863e-06
9.4188439228598e-07
2.76547052301207e-09
1.05194782816453e-11
1.11234380860469e-11
2.93788729373361e-09
1.00241293853493e-06
1.71879320009575e-06
2.33534457196063e-06
2.84190309131933e-06
3.23920623343023e-06
3.53666986400224e-06
3.74927509533027e-06
3.89435354849412e-06
3.9889029957577e-06
4.04778359994418e-06
4.08284796945391e-06
4.10283493076801e-06
4.11375149218595e-06
4.11947150579411e-06
4.1223503061432e-06
4.12374362171516e-06
4.12439282667351e-06
4.12468427828181e-06
4.12481038003176e-06
4.12486291149998e-06
4.1248838858477e-06
4.12489175265124e-06
4.12489416391614e-06
4.12489381321028e-06
4.12489062406569e-06
4.12488167029807e-06
4.12485888491493e-06
4.12480307897118e-06
4.12467092222675e-06
4.12436844275142e-06
4.1236998964464e-06
4.12227440425338e-06
4.1193454875048e-06
4.11355349925061e-06
4.10254380042153e-06
4.08245293794765e-06
4.04729966107865e-06
3.98838981122631e-06
3.89393178607282e-06
3.74913010565491e-06
3.53703117112103e-06
3.24029485007337e-06
2.84384788394493e-06
2.33808164700408e-06
1.72197406441002e-06
1.00534473452379e-06
2.95449478872858e-09
1.12329463958527e-11
1.17485315089566e-11
3.1038920068565e-09
1.05803494498849e-06
1.81222407321375e-06
2.4603439789177e-06
2.99226439739588e-06
3.40915166565542e-06
3.72113495867207e-06
3.94406599864576e-06
4.09618307729496e-06
4.19532937241077e-06
4.25708608214904e-06
4.29387485908257e-06
4.31485316288771e-06
4.32631665350859e-06
4.33232655217086e-06
4.33535313966888e-06
4.33681902281717e-06
4.33750259716612e-06
4.33780977479851e-06
4.33794284084633e-06
4.33799836338312e-06
4.33802058500063e-06
4.33802895257374e-06
4.33803154183156e-06
4.33803120420395e-06
4.33802787469719e-06
4.33801849997948e-06
4.33799464376697e-06
4.33793622554608e-06
4.33779788330177e-06
4.33748120533738e-06
4.33678113881835e-06
4.33528811221582e-06
4.33221978451931e-06
4.32615094961314e-06
4.31461311205614e-06
4.29355558394213e-06
4.25670661091053e-06
4.19494848861628e-06
4.09591203282435e-06
3.94406927840448e-06
3.72160955839225e-06
3.41027912552864e-06
2.99413849479522e-06
2.46288831177036e-06
1.8151234883281e-06
1.06069999854106e-06
3.11953311254501e-09
1.18547246578663e-11
1.22865153292816e-11
3.24698459685172e-09
1.10594359103501e-06
1.89257160284116e-06
2.56772079570208e-06
3.12132905537317e-06
3.55495284961818e-06
3.8793429504335e-06
4.11109957713752e-06
4.26923622602139e-06
4.37231725053638e-06
4.43653851737157e-06
4.47480689232886e-06
4.49663707992065e-06
4.50857135261213e-06
4.51483124372259e-06
4.51798554465151e-06
4.51951428338675e-06
4.52022770538e-06
4.52054858219755e-06
4.52068773820813e-06
4.52074588963458e-06
4.52076921540147e-06
4.52077803097947e-06
4.52078078293541e-06
4.5207804615423e-06
4.52077701347512e-06
4.52076727871136e-06
4.52074250784311e-06
4.52068186262261e-06
4.52053825214313e-06
4.5202094831568e-06
4.51948256769556e-06
4.51793198926131e-06
4.51474479928024e-06
4.50843981659535e-06
4.49645130941092e-06
4.47456866598115e-06
4.43627199575835e-06
4.37208182632007e-06
4.2691356231163e-06
4.11127960244988e-06
3.87997025235922e-06
3.5561710377002e-06
3.12319663016471e-06
2.57014525862925e-06
1.89526183788537e-06
1.10839577809694e-06
3.26181166453093e-09
1.23897028980446e-11
1.27434237812176e-11
3.36871433724193e-09
1.14668626505298e-06
1.96081546698258e-06
2.65884352243061e-06
3.23079308517699e-06
3.67856594544645e-06
4.01344561408153e-06
4.25266719973784e-06
4.41589904692578e-06
4.52231379096769e-06
4.58862562965686e-06
4.62815080473017e-06
4.65070572457248e-06
4.66304120386499e-06
4.66951454863272e-06
4.67277812597843e-06
4.67436077203875e-06
4.67509986025899e-06
4.67543255370257e-06
4.67557698299362e-06
4.67563742236224e-06
4.67566171595708e-06
4.67567092832921e-06
4.67567382736736e-06
4.67567352428441e-06
4.67566997731162e-06
4.67565993790833e-06
4.67563439407186e-06
4.67557187055035e-06
4.67542382118367e-06
4.6750848665798e-06
4.67433532750732e-06
4.67273623272602e-06
4.66944879220696e-06
4.66294454703635e-06
4.65057561601353e-06
4.62799625916709e-06
4.58847691715813e-06
4.52223244440608e-06
4.41598346316844e-06
4.25304734782835e-06
4.01426094539571e-06
3.67992479650706e-06
3.23271941277688e-06
2.66122540005207e-06
1.96337564255372e-06
1.14898649145921e-06
3.38291608868262e-09
1.28441286760851e-11
1.3126296023916e-11
3.47089828454552e-09
1.18088901471301e-06
2.01805010890297e-06
2.73521692328737e-06
3.32250091426808e-06
3.78210212117151e-06
4.12575328072884e-06
4.37122076204551e-06
4.5387193004574e-06
4.64792863811195e-06
4.71599516698228e-06
4.7565767374828e-06
4.77974180907195e-06
4.79241566625089e-06
4.79906939040932e-06
4.80242551048799e-06
4.80405391757866e-06
4.80481485195288e-06
4.80515763487343e-06
4.80530658414038e-06
4.80536899463103e-06
4.8053941279871e-06
4.80540368822284e-06
4.80540671878957e-06
4.80540643520188e-06
4.80540280689624e-06
4.80539251279937e-06
4.80536632327165e-06
4.80530223375911e-06
4.80515048726976e-06
4.80480305067721e-06
4.80403466675341e-06
4.80239513992555e-06
4.79902410997962e-06
4.7923536375384e-06
4.77966722052051e-06
4.75650622597442e-06
4.71596591852167e-06
4.64800577348559e-06
4.53899816888277e-06
4.37181863468538e-06
4.1267860930148e-06
3.78364628495963e-06
3.32454726814214e-06
2.7376312663173e-06
2.02055898182009e-06
1.18309935456244e-06
3.48467787647714e-09
1.32251618555171e-11
1.34427371758745e-11
3.55550763245319e-09
1.20922080748889e-06
2.06542765847355e-06
2.79840888403835e-06
3.39836050392642e-06
3.86773433529865e-06
4.21863583453042e-06
4.46926977529583e-06
4.64030097952436e-06
4.751826813205e-06
4.82134979220268e-06
4.86280953449082e-06
4.88648267337635e-06
4.8994388156086e-06
4.90624332197615e-06
4.90967697123535e-06
4.91134380894408e-06
4.91212314034159e-06
4.91247444697724e-06
4.91262722979579e-06
4.91269132068686e-06
4.9127171750815e-06
4.91272703711042e-06
4.91273018403885e-06
4.91272992042001e-06
4.91272622635218e-06
4.91271572216064e-06
4.91268900016128e-06
4.9126236215429e-06
4.91246883443477e-06
4.91211442277222e-06
4.91133053647538e-06
4.90965773049893e-06
4.90621785791831e-06
4.89941040745457e-06
4.88646224372543e-06
4.86282154206509e-06
4.82143894721421e-06
4.75206309903309e-06
4.64077887784738e-06
4.47009702255083e-06
4.21990871026437e-06
3.86950101646302e-06
3.40058062416021e-06
2.80092374435376e-06
2.06795831909761e-06
1.21140008090066e-06
3.56906542423491e-09
1.35404523579329e-11
1.37005159689309e-11
3.62456276782805e-09
1.23236071440464e-06
2.10410588206469e-06
2.84998395801786e-06
3.46026637372586e-06
3.93761284981433e-06
4.29443298730387e-06
4.54928808017376e-06
4.72320867111276e-06
4.83663157067404e-06
4.90734900882284e-06
4.94953011348181e-06
4.97362133801869e-06
4.98681022175537e-06
4.99373930945968e-06
4.9972371635817e-06
4.99893590783299e-06
4.99973055655976e-06
5.00008898345936e-06
5.00024498156654e-06
5.00031048928413e-06
5.0003369560614e-06
5.00034707712284e-06
5.00035032591897e-06
5.00035008220014e-06
5.00034633605202e-06
5.00033566124372e-06
5.00030850657536e-06
5.00024208204154e-06
5.00008482978736e-06
4.9997247628616e-06
4.9989283009881e-06
4.99722847961108e-06
4.99373268019287e-06
4.98681387348731e-06
4.9736527949509e-06
4.94962168824583e-06
4.90755334010513e-06
4.83702455337839e-06
4.72388587830225e-06
4.55035069776268e-06
4.29596141073021e-06
3.93963077552634e-06
3.46270444804379e-06
2.85265743486506e-06
2.10672230455228e-06
1.23456148928317e-06
3.63808399881405e-09
1.37977563967522e-11
1.39072133307562e-11
3.68004096568872e-09
1.25096912790882e-06
2.13520275850461e-06
2.89144551825118e-06
3.51003266714464e-06
3.99379178258525e-06
4.35537626351308e-06
4.61363270789092e-06
4.7898843407671e-06
4.90483984547522e-06
4.97652377661212e-06
5.01928958285028e-06
5.04372033293455e-06
5.05709861725843e-06
5.06412931534375e-06
5.06767966425336e-06
5.06940456587677e-06
5.07021180968973e-06
5.0705761117868e-06
5.07073477420241e-06
5.0708014624292e-06
5.07082844332909e-06
5.07083878426292e-06
5.07084212131787e-06
5.07084189703554e-06
5.07083811073949e-06
5.07082729998571e-06
5.07079979994944e-06
5.07073254144176e-06
5.07057332445624e-06
5.07020874865869e-06
5.06940225219355e-06
5.06768085244737e-06
5.06414033653134e-06
5.05713241108109e-06
5.04380079635164e-06
5.01945677509054e-06
4.97683847837468e-06
4.90538466700835e-06
4.79075761350786e-06
4.61493173890565e-06
4.35716905812118e-06
3.99608116571289e-06
3.51272265701849e-06
2.89432442460027e-06
2.1379580224035e-06
1.253236030294e-06
3.69368812441208e-09
1.40046036233441e-11
1.40699306808699e-11
3.72379919714959e-09
1.26566370351124e-06
2.15975865458438e-06
2.92418767768215e-06
3.54933755887128e-06
4.03816810756199e-06
4.40352418812609e-06
4.66447644461762e-06
4.84257814193397e-06
4.95875192493646e-06
5.03120547127317e-06
5.07443777138519e-06
5.09913997722596e-06
5.11267003729917e-06
5.11978236296093e-06
5.12337499671333e-06
5.12512103043623e-06
5.1259384831004e-06
5.12630756537973e-06
5.12646840553212e-06
5.12653606444079e-06
5.12656347155285e-06
5.12657399693748e-06
5.12657740968513e-06
5.12657720411759e-06
5.12657338802755e-06
5.12656247161234e-06
5.12653470217964e-06
5.12646679345581e-06
5.12630604457284e-06
5.12593795009548e-06
5.12512361201694e-06
5.12338532388076e-06
5.11980975787591e-06
5.11273188229178e-06
5.09926624964179e-06
5.07467606539747e-06
5.03162476076902e-06
4.95944210243867e-06
4.84364164482463e-06
4.66600898560282e-06
4.40558447658763e-06
4.04074140914038e-06
3.55230362217401e-06
2.92730754218307e-06
2.16269455982217e-06
1.2680328373378e-06
3.73770849399568e-09
1.41680222567917e-11
1.41950605464386e-11
3.75751289758667e-09
1.2770002458597e-06
2.17870636596814e-06
2.94945726339491e-06
3.57967930833284e-06
4.07243342909361e-06
4.44071102659512e-06
4.70375446966124e-06
4.88329363802707e-06
5.00041574621896e-06
5.07346959866007e-06
5.11706658759746e-06
5.14198153049199e-06
5.1556308536359e-06
5.16280750666969e-06
5.16643356792306e-06
5.16819636446968e-06
5.16902194606107e-06
5.16939485129979e-06
5.1695574423389e-06
5.16962588700311e-06
5.16965364235329e-06
5.16966432047818e-06
5.1696677974765e-06
5.16966760975389e-06
5.1696637728346e-06
5.1696527771566e-06
5.16962480435238e-06
5.1695564045693e-06
5.16939449774947e-06
5.16902373863865e-06
5.16820344811398e-06
5.16645230807656e-06
5.16285000503707e-06
5.15571865271889e-06
5.14215036511825e-06
5.11737130954513e-06
5.07398730229764e-06
5.00124396488966e-06
4.88453994900889e-06
4.70551486067708e-06
4.44303753824342e-06
4.07529668113374e-06
3.58293701570339e-06
2.95284332013947e-06
2.18185409632383e-06
1.27949946459052e-06
3.77179398453393e-09
1.4294323505026e-11
1.42881163304337e-11
3.78263002208668e-09
1.28545831305726e-06
2.19284861232486e-06
2.96832528771125e-06
3.6023432995231e-06
4.09803780343324e-06
4.46850830917281e-06
4.7331242762176e-06
4.91374663353463e-06
5.03158500958927e-06
5.10509345117234e-06
5.14896739544113e-06
5.17404440248188e-06
5.18778488965384e-06
5.19501089499098e-06
5.19866270401954e-06
5.20043846819123e-06
5.20127036846945e-06
5.20164626167032e-06
5.20181023023073e-06
5.20187929832741e-06
5.2019073331391e-06
5.20191813583962e-06
5.20192166679318e-06
5.2019214959963e-06
5.20191764603982e-06
5.20190659418705e-06
5.20187847564951e-06
5.20180972335755e-06
5.20164698333131e-06
5.20127429970197e-06
5.20044969112759e-06
5.19868918626637e-06
5.19506731848795e-06
5.18789668555967e-06
5.17425274092596e-06
5.14933408169597e-06
5.10570354667369e-06
5.0325438794726e-06
4.91516774324024e-06
4.73510534812193e-06
4.47109684893356e-06
4.10119223640687e-06
3.60590131939111e-06
2.97199407916604e-06
2.19623007276517e-06
1.28810805579828e-06
3.79736794674701e-09
1.43889412594299e-11
1.43536139155637e-11
3.80033862414806e-09
1.291430996106e-06
2.20284209564486e-06
2.98166675936037e-06
3.61837871846097e-06
4.11616412539768e-06
4.48819756833027e-06
4.75393724589503e-06
4.93533594962539e-06
5.05368942158117e-06
5.12752600834312e-06
5.17160070174644e-06
5.19679571293431e-06
5.21060290666466e-06
5.2178652160837e-06
5.22153607393003e-06
5.22332149137623e-06
5.22415812749551e-06
5.22453627754307e-06
5.22470129618417e-06
5.22477084506652e-06
5.22479909872942e-06
5.22481000107281e-06
5.22481357678787e-06
5.22481342201946e-06
5.22480956586685e-06
5.22479847824953e-06
5.2247702649182e-06
5.22470128234266e-06
5.22453799491887e-06
5.22416403667648e-06
5.22333654209756e-06
5.22156972152553e-06
5.21793454863629e-06
5.21073700315006e-06
5.19704088495956e-06
5.17202541306345e-06
5.1282230958308e-06
5.05477215087253e-06
4.93692417563594e-06
4.75613150075006e-06
4.49104246398927e-06
4.11960784811293e-06
3.62224064935544e-06
2.98562798124174e-06
2.20647154989689e-06
1.29424539827326e-06
3.81559696174692e-09
1.4456319385442e-11
1.4394995304523e-11
3.81154552925693e-09
1.2952181324522e-06
2.20918693320378e-06
2.99014730746995e-06
3.62858309444011e-06
4.12771113161383e-06
4.50075222098406e-06
4.76721972951434e-06
4.94912394613493e-06
5.06781483876148e-06
5.14186783421766e-06
5.18607589752056e-06
5.21134993817876e-06
5.22520219522749e-06
5.23248925796177e-06
5.23617323273021e-06
5.23796536788769e-06
5.23880533762212e-06
5.23918509673409e-06
5.23935087531206e-06
5.23942077857275e-06
5.23944919736359e-06
5.23946017723061e-06
5.23946378952065e-06
5.23946364996484e-06
5.23945979375087e-06
5.23944868877185e-06
5.23942042667464e-06
5.2393513241877e-06
5.23918774698106e-06
5.23881309848002e-06
5.23798400211817e-06
5.23621359306862e-06
5.23257069995763e-06
5.2253572511118e-06
5.21162981798375e-06
5.18655546739316e-06
5.14264751342956e-06
5.06901578285962e-06
4.95087269259225e-06
4.76962034338516e-06
4.50384758405076e-06
4.13144063519142e-06
3.63274915281027e-06
2.99440555768471e-06
2.21307259996648e-06
1.2982061423963e-06
3.8273696862691e-09
1.44998368529772e-11
1.44145839244541e-11
3.81686352172056e-09
1.29702216934532e-06
2.21222021659093e-06
2.99421499363256e-06
3.63349275869314e-06
4.13328286332349e-06
4.50682630995158e-06
4.77366127254164e-06
4.95582438567461e-06
5.07469088579733e-06
5.14885853779576e-06
5.19313861816817e-06
5.21845621199644e-06
5.23233384283702e-06
5.23963515909964e-06
5.24332686454709e-06
5.24512305603314e-06
5.24596509105575e-06
5.2463458754196e-06
5.24651215398094e-06
5.24658229947201e-06
5.24661083647126e-06
5.24662187497487e-06
5.24662551702302e-06
5.24662539205861e-06
5.24662154109488e-06
5.24661043505809e-06
5.24658216589688e-06
5.24651304488599e-06
5.24634941605558e-06
5.24597461851773e-06
5.24514510910536e-06
5.24337363158523e-06
5.23972816712712e-06
5.23250894033978e-06
5.21876933158444e-06
5.19367083350019e-06
5.1497176839484e-06
5.07600595545019e-06
4.95772871250926e-06
4.77626285676898e-06
4.51016700691565e-06
4.13729419517127e-06
3.63796110540533e-06
2.99877114431348e-06
2.21636553368974e-06
1.30018844199804e-06
3.83328332901896e-09
1.45217608028062e-11
1.44135599042173e-11
3.81660395860628e-09
1.29694580850594e-06
2.21211247693039e-06
2.99409596662829e-06
3.63337791528501e-06
4.13318324317162e-06
4.50674865955767e-06
4.77360842927384e-06
4.95579598372496e-06
5.07468430678512e-06
5.1488699326549e-06
5.19316380101525e-06
5.21849132017329e-06
5.23237568707863e-06
5.2396813343087e-06
5.24337569022639e-06
5.24517343372754e-06
5.24601634399255e-06
5.24639760785725e-06
5.2465641446322e-06
5.24663442881285e-06
5.24666304116449e-06
5.24667412129629e-06
5.24667778706268e-06
5.24667767620864e-06
5.24667383547905e-06
5.24666274387591e-06
5.24663450779242e-06
5.24656546651085e-06
5.24640201732312e-06
5.24602759598011e-06
5.24519882485711e-06
5.24342871333773e-06
5.23978563800284e-06
5.23257036186451e-06
5.21883692006497e-06
5.19374748311011e-06
5.14980681146016e-06
5.07611108872754e-06
4.95785279148528e-06
4.77640729880621e-06
4.51033067945958e-06
4.1374724891211e-06
3.63814526862033e-06
2.99894790879676e-06
2.21651690333129e-06
1.30029134988641e-06
3.83363557787703e-09
1.45232190431746e-11
1.43919546243422e-11
3.81077501906626e-09
1.29499135575828e-06
2.208866488141e-06
2.98979274079267e-06
3.62824050006147e-06
4.12741360338283e-06
4.50052015507971e-06
4.7670618581784e-06
4.94903937169556e-06
5.0677958433921e-06
5.14190293445821e-06
5.18615255819308e-06
5.21145654206373e-06
5.22532913683041e-06
5.23262928381355e-06
5.23632126948233e-06
5.23811809682359e-06
5.23896071289334e-06
5.23934192158006e-06
5.2395084804021e-06
5.23957880239008e-06
5.23960744839977e-06
5.2396185536033e-06
5.23962223720773e-06
5.23962214008117e-06
5.23961831476727e-06
5.23960725362084e-06
5.23957909201819e-06
5.23951023147655e-06
5.23934719887479e-06
5.23897369002764e-06
5.23814682899812e-06
5.23638055372478e-06
5.2327448867357e-06
5.22554337977856e-06
5.21183457429853e-06
5.18678756842453e-06
5.14291722656633e-06
5.06933366921042e-06
4.95124748530632e-06
4.77005612611191e-06
4.50434071169033e-06
4.13197699025988e-06
3.63330222246447e-06
2.99493542756735e-06
2.21352544301593e-06
1.29851336534409e-06
3.82841961923883e-09
1.45041795286058e-11
1.43486593898521e-11
3.79908372393195e-09
1.29106111671242e-06
2.20231762953399e-06
2.98108446217675e-06
3.61781434631965e-06
4.11567278259072e-06
4.4878137860328e-06
4.75367632012566e-06
4.93519705726736e-06
5.05366016535675e-06
5.12758748236297e-06
5.17173206048361e-06
5.19697752295229e-06
5.21081903858957e-06
5.21810345658346e-06
5.22178786320092e-06
5.22358122155346e-06
5.224422337675e-06
5.22480294157867e-06
5.22496928031746e-06
5.22503953684092e-06
5.22506817380794e-06
5.2250792870766e-06
5.22508298249265e-06
5.22508289884953e-06
5.22507909472436e-06
5.22506808154364e-06
5.22504003925602e-06
5.22497146814173e-06
5.22480910590938e-06
5.22443708198694e-06
5.22361337829121e-06
5.2218535622824e-06
5.21823062226497e-06
5.2110532698435e-06
5.19738860548018e-06
5.17241922408961e-06
5.12868015765183e-06
5.0553099798968e-06
4.93755702755195e-06
4.7568656116587e-06
4.49187093134802e-06
4.12050618436881e-06
3.62316383979029e-06
2.98650919128441e-06
2.20722171292986e-06
1.29475230439463e-06
3.81732431371545e-09
1.44634570087842e-11
1.42814338132943e-11
3.78093853288541e-09
1.28495843996308e-06
2.19213568550801e-06