/*--------------------------------*- C++ -*----------------------------------*\
  =========                 |
  \\      /  F ield         | OpenFOAM: The Open Source CFD Toolbox
   \\    /   O peration     | Website:  https://openfoam.org
    \\  /    A nd           | Version:  10
     \\/     M anipulation  |
\*---------------------------------------------------------------------------*/
FoamFile
{
    format      ascii;
    class       volScalarField;
    location    "8.8";
    object      omega;
}
// * * * * * * * * * * * * * * * * * * * * * * * * * * * * * * * * * * * * * //

dimensions      [0 0 -1 0 0 0 0];

internalField   nonuniform List<scalar> 
2500
(
127837.163582938
127845.798637465
127843.468713995
127841.512972156
127840.168972954
127839.310202893
127838.780553428
127838.46149509
127838.27429672
127838.168272545
127838.109604074
127838.078484638
127838.062569779
127838.054461474
127838.05040992
127838.048273435
127838.047299126
127838.046685095
127838.04621974
127838.045940972
127838.04573011
127838.045563075
127838.045432501
127838.045356343
127838.045278588
127838.045221181
127838.045207815
127838.045216532
127838.045254797
127838.045328517
127838.045450162
127838.045682898
127838.046006634
127838.046566259
127838.047612908
127838.049677918
127838.053834528
127838.062077911
127838.07867683
127838.110351791
127838.169381593
127838.275990384
127838.462603016
127838.779760307
127839.307137173
127840.162549475
127841.507828193
127843.474534569
127845.813142789
127837.137116293
31878.5186252154
14167.4678052415
14166.3212125128
14165.3943062276
14164.7523424549
14164.3356490202
14164.0736924311
14163.9128434615
14163.8165860298
14163.760710475
14163.7293222153
14163.7123120465
14163.7034229611
14163.6989310879
14163.6967348273
14163.6956892272
14163.6952100291
14163.694987706
14163.6948796741
14163.6948268231
14163.6947976469
14163.6947790278
14163.6947661246
14163.6947577732
14163.6947507523
14163.6947455216
14163.6947433519
14163.6947434879
14163.6947467993
14163.6947561678
14163.6947782131
14163.6948285818
14163.694937032
14163.6951742246
14163.6956894639
14163.6967916473
14163.6990909539
14163.7037440429
14163.7128757565
14163.730166044
14163.7618142339
14163.8178296955
14163.9138730066
14164.0739658405
14164.334683548
14164.7503607226
14165.3937188031
14166.3267165023
14167.47927276
31878.4759787438
31800.3386867448
3532.99420999044
50.8689349813324
50.8641395627004
50.860858210099
50.8587403050306
50.8574131970711
50.8565997168733
50.856113055525
50.8558302398754
50.8556711261436
50.8555846843715
50.855539380858
50.8555164588815
50.8555052556416
50.8554999548103
50.8554975324576
50.8554964435539
50.855495952118
50.8554957293258
50.8554956207717
50.8554955600465
50.8554955216065
50.8554954969027
50.8554954778288
50.8554954636034
50.8554954563837
50.8554954552078
50.8554954645619
50.8554954990814
50.8554955908464
50.8554958152971
50.855496336082
50.8554975121092
50.855500106594
50.8555056963497
50.8555173890078
50.8555410655162
50.8555874370093
50.8556751394791
50.8558354433097
50.8561188624835
50.8566046284025
50.8574149191611
50.8587370517602
50.8608526792042
50.8641465033212
50.8689829048206
3533.00108733585
31800.3274644213
31726.3110896739
3524.64338796658
50.7478691991848
50.7426630237991
50.7391872199683
50.7369893990664
50.7356378204573
50.7348231951503
50.7343429627389
50.7340673813775
50.7339140380689
50.7338315256081
50.7337886469288
50.7337671271701
50.7337566933712
50.7337518016258
50.73374958579
50.7337486065534
50.7337481783952
50.7337479916926
50.7337479060023
50.7337478610668
50.733747833759
50.7337478163145
50.7337478033992
50.733747793535
50.7337477875151
50.7337477848372
50.7337477886646
50.7337478127866
50.7337478860511
50.7337480749893
50.7337485320522
50.7337495849792
50.7337519382056
50.7337570645724
50.7337678955193
50.7337900370643
50.7338338052172
50.7339174142503
50.7340718717976
50.7343481685274
50.7348280010354
50.735640515596
50.73698914453
50.7391887419973
50.7426855038487
50.7479502231044
3524.65494835474
31726.3819805803
31662.450696176
3517.50932675672
50.645379946123
50.6405481897496
50.6374067908371
50.6354647968418
50.6342947099745
50.6336020452824
50.6331998846553
50.6329719994922
50.632846516656
50.6327795781398
50.6327450439046
50.6327278218977
50.6327195208036
50.6327156530906
50.6327139126408
50.6327131523696
50.6327128271329
50.6327126898547
50.6327126300917
50.6327126005972
50.6327125833045
50.6327125724207
50.6327125646201
50.6327125584158
50.6327125539119
50.6327125509697
50.6327125508495
50.6327125644336
50.6327126147286
50.6327127527312
50.6327130991258
50.6327139097316
50.6327157386456
50.6327197569005
50.6327283139804
50.6327459433975
50.6327810720288
50.6328487725719
50.6329750816441
50.6332035972062
50.6336057392273
50.6342974366416
50.6354667649862
50.6374140987011
50.6405821234706
50.645483552507
3517.52449118204
31662.6079396765
31611.6950428209
3511.90813153971
50.5656860726031
50.5616930738208
50.5591656582531
50.5576389494046
50.5567380149186
50.5562142149389
50.5559146008585
50.555746841893
50.5556553374927
50.5556068863716
50.5555820357803
50.5555697017408
50.5555637811949
50.5555610343511
50.5555598044416
50.5555592720326
50.5555590483305
50.5555589568293
50.5555589192003
50.5555589019615
50.5555588922852
50.5555588863441
50.5555588822431
50.5555588787457
50.555558875662
50.5555588729291
50.5555588712206
50.5555588772571
50.5555589073777
50.5555589981544
50.5555592349423
50.5555597970482
50.5555610748557
50.5555639012242
50.5555699573148
50.5555825107259
50.5556076890037
50.5556565761226
50.5557485808548
50.5559167701075
50.5562165045391
50.5567400475759
50.5576415892427
50.5591753015297
50.5617305183789
50.5657951631603
3511.92469574665
31611.9097520077
31574.2273881026
3507.83099611414
50.5082613354365
50.505258936594
50.5034079696269
50.5023153351793
50.5016837561268
50.5013230305304
50.5011196535995
50.5010070510977
50.5009461522308
50.5009141096601
50.5008977509133
50.5008896595298
50.5008857863208
50.500883994474
50.5008831952535
50.5008828519472
50.5008827100575
50.5008826538776
50.5008826322838
50.500882623423
50.5008826187907
50.5008826160646
50.5008826143133
50.5008826125962
50.5008826106473
50.5008826084313
50.5008826064475
50.500882607982
50.5008826238996
50.5008826786688
50.5008828276477
50.5008831864788
50.5008840074755
50.5008858332785
50.5008897640093
50.5008979502575
50.5009144550434
50.5009466997476
50.5010078424581
50.5011206694833
50.5013241396095
50.5016848754817
50.5023175009295
50.5034169012378
50.5052928232945
50.5083603509349
3507.84666939586
31574.458716071
31548.3750689031
3505.06083981535
50.4696518202739
50.4675694822442
50.4663181210348
50.4655959625822
50.4651869520245
50.46495738878
50.4648297586196
50.464759838622
50.4647223132503
50.4647026746136
50.4646926846026
50.4646877551193
50.4646853995438
50.4646843117983
50.4646838281042
50.4646836217856
50.4646835378802
50.4646835057918
50.4646834944702
50.4646834906333
50.4646834888965
50.4646834879672
50.4646834875094
50.4646834868336
50.464683485693
50.4646834840763
50.4646834824093
50.4646834821394
50.4646834894948
50.4646835198127
50.4646836071093
50.4646838206904
50.4646843123253
50.4646854104806
50.4646877830248
50.4646927413315
50.4647027782433
50.4647224855162
50.4647600971473
50.4648300930258
50.4649577355638
50.4651873187914
50.4655972278396
50.4663247685906
50.4675959190281
50.4697314675997
3505.07402135497
31548.5879292791
31531.6138788064
3503.29414189352
50.4452912738911
50.4439460987473
50.4431573549765
50.4427121020857
50.4424649141738
50.4423285335939
50.4422537347967
50.4422131679109
50.4421915481031
50.4421802852549
50.4421745717745
50.4421717568232
50.442170412903
50.4421697929815
50.4421695179995
50.442169401486
50.4421693548662
50.4421693376655
50.4421693323355
50.4421693311691
50.4421693307613
50.442169330636
50.4421693307776
50.4421693306443
50.442169330025
50.4421693289455
50.4421693276419
50.4421693268647
50.4421693298116
50.442169345379
50.4421693934141
50.4421695129794
50.4421697898927
50.4421704106363
50.4421717550512
50.4421745713768
50.4421802890804
50.4421915602787
50.442213190157
50.4422537524066
50.4423284993483
50.4424648290849
50.4427125624485
50.4431614988268
50.4439643595711
50.4453491114826
3503.30417332995
31531.7876214793
31521.356135513
3502.23141785101
50.430796907354
50.4299814468148
50.429514416707
50.4292563565871
50.4291158673136
50.4290396506932
50.4289984021516
50.4289762462475
50.4289645145163
50.4289584268584
50.4289553450578
50.4289538279555
50.4289531038324
50.428952769974
50.4289526221924
50.4289525599864
50.4289525355083
50.4289525268653
50.4289525246886
50.4289525246527
50.4289525248228
50.42895252503
50.4289525252442
50.4289525252488
50.4289525249452
50.4289525242836
50.4289525233664
50.428952522633
50.4289525235533
50.4289525310118
50.4289525559945
50.4289526193625
50.4289527670765
50.4289530991464
50.4289538194353
50.4289553303928
50.4289584038735
50.4289644807486
50.4289761963418
50.428998317934
50.4290394875443
50.429115597648
50.4292563134804
50.4295165846362
50.4299927906487
50.4308353262957
3502.23841736437
31521.4847496566
31515.4065386545
3501.62591552855
50.4226294268117
50.4221627145237
50.4219013491565
50.4217598895968
50.4216843379084
50.4216440255926
50.4216224927567
50.4216110346644
50.4216050040437
50.4216018853488
50.4216003088893
50.4215995330228
50.4215991625866
50.4215989918037
50.4215989163469
50.4215988847981
50.4215988726024
50.4215988685948
50.4215988678785
50.4215988681075
50.4215988683955
50.4215988686595
50.421598868849
50.4215988688929
50.4215988687531
50.4215988683575
50.4215988677675
50.4215988672381
50.4215988673899
50.4215988707365
50.4215988830626
50.4215989150286
50.4215989900604
50.4215991591137
50.4215995260417
50.4216002960958
50.4216018640545
50.4216049706986
50.4216109826032
50.4216224045327
50.4216438607548
50.4216840511374
50.4217596294712
50.4219022585756
50.4221691092162
50.4226530025108
3501.63043903173
31515.4941606954
31512.1242866744
3501.2979108286
50.418254243853
50.418000784578
50.4178618411824
50.417788128326
50.4177494885947
50.4177292068701
50.4177185131842
50.4177128748289
50.4177099241657
50.4177084027704
50.4177076344878
50.4177072562786
50.4177070755699
50.4177069922322
50.4177069554743
50.4177069402139
50.4177069344339
50.4177069327363
50.4177069325884
50.417706932788
50.41770693303
50.41770693324
50.4177069333758
50.4177069334239
50.4177069333613
50.4177069331347
50.4177069327822
50.41770693243
50.4177069323619
50.4177069337905
50.4177069395856
50.4177069550056
50.4177069914628
50.4177070737426
50.4177072523042
50.4177076268897
50.4177083897023
50.4177099029408
50.4177128400455
50.4177184509329
50.4177290845613
50.4177492591049
50.4177878360573
50.4178620880261
50.4180040677732
50.4182677111502
3501.30064031692
31512.1798086058
31510.3964532249
3501.12841227721
50.4160187250359
50.4158875510169
50.4158170850092
50.4157804138231
50.4157615388328
50.4157517908583
50.415746717167
50.4157440661593
50.4157426864136
50.4157419768568
50.4157416187474
50.4157414423408
50.4157413579603
50.4157413190244
50.4157413018793
50.4157412948154
50.4157412922177
50.4157412915421
50.4157412915508
50.4157412916996
50.4157412918638
50.4157412920021
50.415741292088
50.4157412921244
50.4157412920966
50.4157412919731
50.4157412917759
50.415741291563
50.4157412914669
50.4157412920448
50.4157412946579
50.4157413018002
50.415741318811
50.415741357248
50.4157414405915
50.4157416152182
50.4157419705791
50.4157426758123
50.415744047654
50.4157466810864
50.415751713807
50.4157613818323
50.4157801745068
50.4158170532186
50.415889083073
50.4160259294024
3501.12996018531
31510.4294399353
31509.5260559154
3501.0446106993
50.4149260142445
50.4148610782944
50.4148268578293
50.4148093756575
50.4148005361991
50.4147960437193
50.414793735417
50.4147925401597
50.4147919213693
50.4147916038843
50.4147914436865
50.4147913646916
50.4147913268526
50.414791309379
50.4147913016975
50.4147912985586
50.4147912974456
50.4147912971939
50.4147912972309
50.4147912973264
50.4147912974248
50.4147912975061
50.4147912975556
50.4147912975783
50.414791297566
50.4147912975021
50.414791297398
50.4147912972796
50.4147912972092
50.4147912974309
50.4147912985646
50.4147913017528
50.4147913094007
50.4147913266945
50.4147913641363
50.414791442435
50.4147916015323
50.4147919171446
50.4147925319825
50.4147937172394
50.4147960003315
50.4148004398218
50.41480920955
50.4148267488599
50.4148617209401
50.4149296405175
3501.04544026786
31509.5445494022
31509.1054434585
3501.00487182336
50.4144138254097
50.41438297686
50.4143670119538
50.4143589994126
50.4143550176431
50.4143530258276
50.4143520155222
50.4143514970771
50.4143512300664
50.4143510933555
50.4143510243674
50.4143509903035
50.4143509739594
50.4143509664049
50.4143509630896
50.4143509617466
50.4143509612888
50.4143509612022
50.4143509612337
50.4143509612886
50.4143509613427
50.4143509613866
50.4143509614131
50.4143509614256
50.4143509614201
50.4143509613885
50.4143509613365
50.4143509612749
50.4143509612327
50.4143509613135
50.4143509617895
50.4143509631651
50.4143509664882
50.414350974005
50.4143509902453
50.414351024119
50.4143510927941
50.4143512288719
50.4143514941565
50.4143520074039
50.4143530034203
50.4143549632067
50.4143588962797
50.4143669097558
50.414383212062
50.414415549112
3501.00529393424
31509.1152787547
31508.9100968435
3500.98676543524
50.414183219739
50.4141691157203
50.4141619400446
50.4141583992697
50.4141566690551
50.4141558169841
50.4141553903307
50.414155173364
50.4141550621924
50.4141550053794
50.4141549767
50.4141549625165
50.4141549556984
50.4141549525436
50.4141549511617
50.414154950607
50.4141549504262
50.4141549503994
50.414154950419
50.414154950448
50.4141549504756
50.4141549504978
50.4141549505111
50.4141549505174
50.414154950515
50.4141549505001
50.4141549504752
50.414154950445
50.4141549504228
50.4141549504508
50.4141549506444
50.4141549512197
50.4141549526189
50.4141549557835
50.4141549626033
50.4141549767828
50.4141550054467
50.4141550621364
50.4141551726558
50.4141553871148
50.4141558062027
50.4141566403217
50.414158340432
50.4141618677151
50.41416918461
50.4141839955767
3500.98697017756
31508.9150806758
31508.8228335744
3500.97883506402
50.4140834800324
50.4140772582632
50.414074143145
50.4140726306772
50.4140719035348
50.4140715509168
50.4140713766141
50.414071288779
50.4140712440015
50.4140712211583
50.4140712096205
50.4140712039042
50.4140712011507
50.4140711998753
50.4140711993178
50.4140711990962
50.4140711990272
50.4140711990201
50.4140711990308
50.4140711990452
50.4140711990585
50.4140711990691
50.4140711990753
50.4140711990784
50.4140711990773
50.4140711990705
50.4140711990591
50.4140711990451
50.4140711990341
50.4140711990433
50.41407119912
50.4140711993537
50.4140711999257
50.414071201219
50.4140712039981
50.4140712097554
50.4140712213532
50.4140712442325
50.4140712888072
50.4140713755066
50.4140715460295
50.4140718892083
50.4140725993343
50.4140740989197
50.4140772688331
50.4140838112715
3500.97893006041
31508.8252489688
31508.7854010107
3500.97550518219
50.4140421899943
50.4140395358145
50.4140382266993
50.4140376007824
50.4140373045495
50.4140371630508
50.4140370940006
50.4140370595222
50.4140370420348
50.4140370331285
50.4140370286268
50.4140370263924
50.4140370253139
50.4140370248139
50.4140370245959
50.4140370245101
50.4140370244848
50.4140370244835
50.4140370244888
50.4140370244955
50.4140370245016
50.4140370245063
50.4140370245091
50.4140370245105
50.4140370245099
50.414037024507
50.414037024502
50.4140370244957
50.4140370244905
50.4140370244934
50.4140370245229
50.4140370246152
50.4140370248425
50.4140370253563
50.4140370264573
50.4140370287292
50.4140370332881
50.4140370422538
50.4140370596992
50.4140370936903
50.4140371609446
50.4140372977474
50.4140375850238
50.4140382021779
50.4140395307456
50.4140423242314
3500.97554747331
31508.7865242852
31508.7701026165
3500.97417955017
50.4140260550295
50.4140249578722
50.4140244242411
50.4140241727853
50.4140240555585
50.4140240003864
50.414023973806
50.4140239606564
50.4140239540215
50.4140239506481
50.414023948942
50.4140239480937
50.4140239476836
50.4140239474935
50.4140239474108
50.4140239473789
50.4140239473699
50.41402394737
50.4140239473725
50.4140239473755
50.4140239473781
50.4140239473802
50.4140239473814
50.4140239473819
50.4140239473817
50.4140239473804
50.4140239473782
50.4140239473755
50.4140239473731
50.4140239473739
50.4140239473849
50.4140239474202
50.4140239475079
50.4140239477064
50.4140239481306
50.414023949003
50.4140239507467
50.4140239541642
50.4140239608024
50.4140239737526
50.4140239995164
50.4140240524635
50.4140241652487
50.4140244116139
50.4140249513775
50.4140261066348
3500.97419766365
31508.7706053102
31508.7642990546
3500.97369737332
50.4140203765593
50.4140199362959
50.4140197249302
50.4140196266899
50.4140195815489
50.4140195606089
50.4140195506492
50.4140195457687
50.4140195433198
50.4140195420773
50.4140195414489
50.4140195411362
50.414019540985
50.4140195409151
50.414019540885
50.4140195408735
50.4140195408706
50.4140195408709
50.4140195408721
50.4140195408734
50.4140195408745
50.4140195408754
50.4140195408758
50.414019540876
50.4140195408759
50.4140195408754
50.4140195408744
50.4140195408732
50.4140195408721
50.4140195408721
50.414019540876
50.4140195408889
50.4140195409216
50.4140195409958
50.4140195411547
50.4140195414805
50.4140195421296
50.4140195433979
50.414019545857
50.414019550659
50.4140195602615
50.4140195801921
50.4140196232409
50.414019718806
50.4140199317572
50.4140203953327
3500.97370485517
31508.7645161002
31508.7624372999
3500.97355880921
50.4140189052446
50.4140187334705
50.4140186519937
50.4140186146118
50.414018597672
50.4140185899251
50.4140185862883
50.4140185845243
50.4140185836448
50.4140185832002
50.4140185829758
50.4140185828644
50.4140185828107
50.4140185827862
50.4140185827759
50.4140185827722
50.4140185827714
50.4140185827717
50.4140185827723
50.4140185827729
50.4140185827734
50.4140185827736
50.4140185827738
50.4140185827739
50.4140185827738
50.4140185827735
50.4140185827731
50.4140185827725
50.414018582772
50.4140185827717
50.4140185827728
50.4140185827772
50.4140185827887
50.4140185828152
50.4140185828725
50.4140185829904
50.414018583225
50.4140185836829
50.4140185845697
50.4140185863038
50.4140185897897
50.4140185970963
50.4140186130942
50.4140186491703
50.4140187308838
50.4140189116728
3500.97356179588
31508.7625279162
31508.7621623553
3500.97355601947
50.4140190755384
50.4140190102842
50.4140189796782
50.4140189658073
50.4140189596058
50.4140189568102
50.414018955516
50.4140189548958
50.4140189545894
50.4140189544358
50.4140189543588
50.4140189543211
50.4140189543033
50.4140189542954
50.4140189542924
50.4140189542915
50.4140189542915
50.4140189542919
50.4140189542922
50.4140189542925
50.4140189542927
50.4140189542928
50.4140189542929
50.4140189542928
50.4140189542928
50.4140189542926
50.4140189542924
50.414018954292
50.4140189542916
50.4140189542914
50.4140189542914
50.4140189542925
50.414018954296
50.4140189543047
50.4140189543241
50.4140189543647
50.4140189544463
50.4140189546061
50.4140189549165
50.4140189555255
50.4140189567579
50.4140189593681
50.4140189651625
50.4140189784324
50.4140190089691
50.4140190775884
3500.97355717397
31508.7621990146
31508.7625079041
3500.97360535812
50.414019868119
50.4140198439561
50.414019832742
50.4140198277195
50.4140198255042
50.4140198245209
50.4140198240733
50.4140198238624
50.4140198237601
50.4140198237098
50.4140198236854
50.4140198236739
50.414019823669
50.4140198236671
50.4140198236667
50.4140198236668
50.4140198236671
50.4140198236674
50.4140198236677
50.4140198236678
50.4140198236679
50.414019823668
50.414019823668
50.414019823668
50.4140198236679
50.4140198236678
50.4140198236676
50.4140198236674
50.4140198236671
50.4140198236667
50.4140198236664
50.4140198236663
50.4140198236669
50.414019823669
50.4140198236746
50.4140198236873
50.4140198237137
50.4140198237666
50.4140198238707
50.4140198240774
50.4140198245003
50.4140198254081
50.4140198274539
50.4140198322133
50.4140198433379
50.414019868715
3500.97360579097
31508.7625222995
31508.7630895149
3500.97367417445
50.4140208902336
50.4140208815071
50.4140208774985
50.4140208757245
50.4140208749536
50.4140208746179
50.4140208744689
50.414020874401
50.4140208743695
50.414020874355
50.4140208743487
50.4140208743463
50.4140208743458
50.4140208743461
50.4140208743465
50.4140208743471
50.4140208743475
50.4140208743478
50.414020874348
50.4140208743481
50.4140208743482
50.4140208743483
50.4140208743483
50.4140208743482
50.4140208743482
50.4140208743481
50.4140208743479
50.4140208743477
50.4140208743474
50.414020874347
50.4140208743466
50.414020874346
50.4140208743455
50.4140208743454
50.4140208743461
50.4140208743489
50.4140208743559
50.4140208743714
50.4140208744037
50.41402087447
50.4140208746093
50.4140208749151
50.4140208756178
50.4140208772816
50.4140208812334
50.4140208903839
3500.97367433211
31508.7630950114
31508.7637586296
3500.97375008402
50.4140219948525
50.4140219917808
50.414021990385
50.4140219897756
50.4140219895159
50.4140219894063
50.41402198936
50.4140219893406
50.414021989333
50.4140219893305
50.4140219893302
50.4140219893309
50.4140219893318
50.4140219893327
50.4140219893335
50.4140219893341
50.4140219893345
50.4140219893349
50.4140219893351
50.4140219893352
50.4140219893353
50.4140219893354
50.4140219893354
50.4140219893353
50.4140219893353
50.4140219893351
50.414021989335
50.4140219893348
50.4140219893345
50.4140219893341
50.4140219893336
50.4140219893329
50.4140219893321
50.4140219893312
50.4140219893303
50.4140219893298
50.4140219893302
50.4140219893331
50.414021989341
50.4140219893596
50.4140219894022
50.4140219895003
50.4140219897335
50.4140219902986
50.4140219916654
50.4140219948807
3500.9737501399
31508.7637606742
31508.7644593907
3500.97382851466
50.4140231284095
50.4140231273598
50.4140231268896
50.4140231266882
50.414023126605
50.4140231265722
50.4140231265603
50.4140231265568
50.4140231265568
50.414023126558
50.4140231265596
50.4140231265611
50.4140231265625
50.4140231265635
50.4140231265644
50.414023126565
50.4140231265655
50.4140231265658
50.4140231265661
50.4140231265662
50.4140231265663
50.4140231265663
50.4140231265664
50.4140231265663
50.4140231265663
50.4140231265662
50.414023126566
50.4140231265658
50.4140231265655
50.4140231265652
50.4140231265646
50.4140231265639
50.414023126563
50.4140231265619
50.4140231265605
50.4140231265589
50.4140231265574
50.4140231265562
50.4140231265562
50.4140231265594
50.4140231265699
50.4140231265984
50.4140231266715
50.414023126856
50.4140231273133
50.4140231284102
3500.97382853398
31508.7644601303
31508.7651713322
3500.97390782088
50.414024271883
50.4140242715399
50.4140242713899
50.4140242713279
50.4140242713041
50.4140242712965
50.4140242712954
50.4140242712967
50.4140242712989
50.4140242713011
50.4140242713031
50.4140242713048
50.4140242713062
50.4140242713073
50.4140242713081
50.4140242713087
50.4140242713092
50.4140242713095
50.4140242713098
50.4140242713099
50.41402427131
50.41402427131
50.4140242713101
50.4140242713101
50.41402427131
50.4140242713099
50.4140242713098
50.4140242713096
50.4140242713093
50.4140242713089
50.4140242713084
50.4140242713077
50.4140242713068
50.4140242713056
50.4140242713042
50.4140242713025
50.4140242713004
50.4140242712981
50.4140242712959
50.4140242712944
50.4140242712949
50.4140242713009
50.4140242713211
50.414024271377
50.4140242715219
50.4140242718803
3500.97390782738
31508.7651715941
31508.7658871366
3500.9739874246
50.4140254186805
50.4140254185785
50.4140254185367
50.4140254185208
50.4140254185162
50.4140254185163
50.4140254185183
50.4140254185208
50.4140254185233
50.4140254185256
50.4140254185275
50.4140254185291
50.4140254185304
50.4140254185314
50.4140254185322
50.4140254185328
50.4140254185332
50.4140254185335
50.4140254185337
50.4140254185339
50.414025418534
50.414025418534
50.4140254185341
50.4140254185341
50.414025418534
50.4140254185339
50.4140254185338
50.4140254185336
50.4140254185333
50.414025418533
50.4140254185325
50.4140254185319
50.414025418531
50.4140254185299
50.4140254185286
50.4140254185269
50.4140254185249
50.4140254185225
50.4140254185199
50.4140254185173
50.4140254185151
50.4140254185144
50.4140254185178
50.4140254185316
50.4140254185719
50.414025418679
3500.97398742678
31508.7658872269
31508.7666042475
3500.97406712729
50.4140265665688
50.4140265665471
50.4140265665406
50.4140265665394
50.4140265665404
50.4140265665424
50.4140265665449
50.4140265665474
50.4140265665497
50.4140265665517
50.4140265665534
50.4140265665549
50.414026566556
50.4140265665569
50.4140265665576
50.4140265665582
50.4140265665586
50.4140265665588
50.4140265665591
50.4140265665592
50.4140265665593
50.4140265665594
50.4140265665594
50.4140265665594
50.4140265665593
50.4140265665593
50.4140265665592
50.4140265665589
50.4140265665587
50.4140265665584
50.4140265665579
50.4140265665574
50.4140265665566
50.4140265665556
50.4140265665544
50.4140265665529
50.4140265665511
50.414026566549
50.4140265665466
50.414026566544
50.4140265665414
50.4140265665392
50.4140265665378
50.4140265665387
50.414026566545
50.4140265665687
3500.97406712804
31508.766604279
31508.7673217916
3500.97414686226
50.4140277148082
50.4140277148122
50.4140277148166
50.4140277148194
50.4140277148217
50.4140277148238
50.4140277148259
50.414027714828
50.4140277148299
50.4140277148316
50.414027714833
50.4140277148343
50.4140277148352
50.414027714836
50.4140277148367
50.4140277148372
50.4140277148376
50.4140277148378
50.414027714838
50.4140277148382
50.4140277148382
50.4140277148383
50.4140277148383
50.4140277148383
50.4140277148383
50.4140277148382
50.4140277148381
50.4140277148379
50.4140277148377
50.4140277148374
50.414027714837
50.4140277148365
50.4140277148358
50.414027714835
50.414027714834
50.4140277148326
50.4140277148311
50.4140277148293
50.4140277148273
50.4140277148252
50.414027714823
50.4140277148208
50.4140277148186
50.4140277148159
50.4140277148119
50.4140277148088
3500.9741468626
31508.7673218025
31508.7680394764
3500.97422660757
50.4140288631581
50.4140288631699
50.4140288631772
50.4140288631807
50.4140288631828
50.4140288631844
50.4140288631859
50.4140288631875
50.4140288631889
50.4140288631903
50.4140288631914
50.4140288631924
50.4140288631932
50.4140288631939
50.4140288631945
50.4140288631949
50.4140288631952
50.4140288631954
50.4140288631956
50.4140288631958
50.4140288631959
50.4140288631959
50.4140288631959
50.4140288631959
50.4140288631959
50.4140288631959
50.4140288631958
50.4140288631956
50.4140288631954
50.4140288631952
50.4140288631948
50.4140288631944
50.4140288631938
50.4140288631931
50.4140288631923
50.4140288631912
50.41402886319
50.4140288631885
50.414028863187
50.4140288631853
50.4140288631837
50.4140288631821
50.4140288631801
50.414028863177
50.4140288631703
50.4140288631593
3500.97422660772
31508.7680394805
31508.7687572061
3500.97430635611
50.4140300115424
50.4140300115559
50.4140300115635
50.4140300115666
50.4140300115681
50.414030011569
50.4140300115699
50.414030011571
50.414030011572
50.4140300115729
50.4140300115738
50.4140300115746
50.4140300115752
50.4140300115758
50.4140300115762
50.4140300115766
50.4140300115769
50.4140300115771
50.4140300115772
50.4140300115774
50.4140300115775
50.4140300115775
50.4140300115775
50.4140300115775
50.4140300115775
50.4140300115775
50.4140300115774
50.4140300115773
50.4140300115771
50.4140300115769
50.4140300115766
50.4140300115763
50.4140300115759
50.4140300115752
50.4140300115746
50.4140300115737
50.4140300115728
50.4140300115718
50.4140300115706
50.4140300115695
50.4140300115685
50.4140300115675
50.4140300115663
50.4140300115636
50.4140300115568
50.4140300115438
3500.97430635619
31508.7687572059
31508.7694749501
3500.97438610567
50.414031159937
50.4140311599505
50.4140311599575
50.4140311599599
50.4140311599606
50.4140311599608
50.4140311599612
50.4140311599617
50.4140311599623
50.4140311599629
50.4140311599635
50.414031159964
50.4140311599645
50.4140311599649
50.4140311599653
50.4140311599655
50.4140311599658
50.414031159966
50.4140311599661
50.4140311599662
50.4140311599663
50.4140311599663
50.4140311599664
50.4140311599664
50.4140311599663
50.4140311599663
50.4140311599663
50.4140311599662
50.4140311599661
50.4140311599659
50.4140311599657
50.4140311599654
50.4140311599651
50.4140311599646
50.4140311599641
50.4140311599635
50.4140311599629
50.4140311599622
50.4140311599615
50.414031159961
50.4140311599605
50.4140311599603
50.4140311599598
50.4140311599578
50.4140311599516
50.4140311599387
3500.97438610578
31508.7694749503
31508.7701926983
3500.97446585552
50.4140323083348
50.4140323083475
50.4140323083536
50.4140323083552
50.4140323083551
50.4140323083547
50.4140323083545
50.4140323083545
50.4140323083546
50.4140323083549
50.4140323083553
50.4140323083556
50.4140323083559
50.4140323083562
50.4140323083565
50.4140323083567
50.4140323083568
50.414032308357
50.4140323083571
50.4140323083572
50.4140323083572
50.4140323083573
50.4140323083573
50.4140323083573
50.4140323083574
50.4140323083573
50.4140323083573
50.4140323083572
50.4140323083572
50.4140323083571
50.4140323083569
50.4140323083567
50.4140323083565
50.4140323083562
50.4140323083558
50.4140323083555
50.4140323083551
50.4140323083547
50.4140323083545
50.4140323083545
50.4140323083546
50.4140323083551
50.4140323083553
50.4140323083542
50.4140323083488
50.4140323083366
3500.97446585568
31508.7701926995
31508.7709104481
3500.97454560548
50.4140334567334
50.4140334567451
50.4140334567504
50.4140334567511
50.4140334567502
50.4140334567492
50.4140334567484
50.414033456748
50.4140334567477
50.4140334567477
50.4140334567477
50.4140334567478
50.414033456748
50.4140334567482
50.4140334567483
50.4140334567484
50.4140334567486
50.4140334567487
50.4140334567487
50.4140334567488
50.4140334567489
50.4140334567489
50.414033456749
50.414033456749
50.414033456749
50.414033456749
50.414033456749
50.414033456749
50.4140334567489
50.4140334567489
50.4140334567488
50.4140334567487
50.4140334567485
50.4140334567484
50.4140334567482