/*--------------------------------*- C++ -*----------------------------------*\
  =========                 |
  \\      /  F ield         | OpenFOAM: The Open Source CFD Toolbox
   \\    /   O peration     | Website:  https://openfoam.org
    \\  /    A nd           | Version:  10
     \\/     M anipulation  |
\*---------------------------------------------------------------------------*/
FoamFile
{
    format      ascii;
    class       volScalarField;
    location    "8.8";
    object      p;
}
// * * * * * * * * * * * * * * * * * * * * * * * * * * * * * * * * * * * * * //

dimensions      [1 -1 -2 0 0 0 0];

internalField   nonuniform List<scalar> 
2500
(
100103.045327153
100103.0453278
100103.045328647
100103.045329456
100103.04533007
100103.045330515
100103.04533082
100103.045331027
100103.045331167
100103.04533126
100103.045331323
100103.045331365
100103.045331393
100103.045331413
100103.045331426
100103.045331436
100103.045331443
100103.045331448
100103.045331451
100103.045331454
100103.045331456
100103.045331457
100103.045331459
100103.045331459
100103.04533146
100103.04533146
100103.04533146
100103.045331459
100103.045331458
100103.045331457
100103.045331455
100103.045331453
100103.045331449
100103.045331444
100103.045331437
100103.045331428
100103.045331414
100103.045331394
100103.045331366
100103.045331323
100103.04533126
100103.045331166
100103.045331026
100103.045330818
100103.045330512
100103.045330065
100103.045329446
100103.045328629
100103.045327771
100103.045327127
100103.043076435
100103.043076928
100103.043077626
100103.043078325
100103.043078872
100103.043079279
100103.043079563
100103.04307976
100103.043079893
100103.043079983
100103.043080043
100103.043080084
100103.043080112
100103.043080131
100103.043080145
100103.043080155
100103.043080161
100103.043080167
100103.04308017
100103.043080173
100103.043080175
100103.043080177
100103.043080178
100103.043080179
100103.043080179
100103.043080179
100103.043080179
100103.043080179
100103.043080178
100103.043080176
100103.043080174
100103.043080172
100103.043080168
100103.043080163
100103.043080156
100103.043080147
100103.043080133
100103.043080114
100103.043080085
100103.043080044
100103.043079983
100103.043079892
100103.043079759
100103.043079561
100103.043079276
100103.043078867
100103.043078315
100103.043077608
100103.0430769
100103.043076411
100103.040819808
100103.040820181
100103.040820669
100103.040821197
100103.040821621
100103.040821948
100103.040822181
100103.040822346
100103.04082246
100103.040822539
100103.040822593
100103.04082263
100103.040822656
100103.040822674
100103.040822687
100103.040822696
100103.040822703
100103.040822708
100103.040822712
100103.040822715
100103.040822717
100103.040822718
100103.040822719
100103.04082272
100103.040822721
100103.040822721
100103.040822721
100103.04082272
100103.040822719
100103.040822718
100103.040822716
100103.040822713
100103.04082271
100103.040822705
100103.040822698
100103.040822689
100103.040822676
100103.040822657
100103.040822631
100103.040822594
100103.04082254
100103.04082246
100103.040822346
100103.04082218
100103.040821945
100103.040821615
100103.040821187
100103.040820652
100103.040820155
100103.040819781
100103.038557569
100103.038557805
100103.038558081
100103.038558416
100103.038558692
100103.038558916
100103.038559081
100103.038559202
100103.038559289
100103.03855935
100103.038559394
100103.038559426
100103.038559448
100103.038559464
100103.038559476
100103.038559485
100103.038559491
100103.038559496
100103.0385595
100103.038559503
100103.038559505
100103.038559506
100103.038559507
100103.038559508
100103.038559509
100103.038559509
100103.038559509
100103.038559508
100103.038559507
100103.038559506
100103.038559504
100103.038559502
100103.038559498
100103.038559493
100103.038559487
100103.038559478
100103.038559466
100103.03855945
100103.038559427
100103.038559396
100103.038559352
100103.038559289
100103.038559202
100103.03855908
100103.038558913
100103.038558686
100103.038558406
100103.038558066
100103.038557783
100103.038557542
100103.036290321
100103.036290422
100103.036290517
100103.036290674
100103.036290813
100103.036290938
100103.036291036
100103.036291114
100103.036291173
100103.036291217
100103.03629125
100103.036291275
100103.036291293
100103.036291307
100103.036291318
100103.036291326
100103.036291332
100103.036291336
100103.03629134
100103.036291342
100103.036291344
100103.036291346
100103.036291347
100103.036291348
100103.036291348
100103.036291348
100103.036291348
100103.036291348
100103.036291347
100103.036291346
100103.036291344
100103.036291342
100103.036291338
100103.036291334
100103.036291328
100103.03629132
100103.03629131
100103.036291296
100103.036291277
100103.036291252
100103.036291219
100103.036291174
100103.036291114
100103.036291036
100103.036290936
100103.036290809
100103.036290667
100103.036290506
100103.036290406
100103.036290298
100103.034018918
100103.034018905
100103.034018865
100103.03401888
100103.034018907
100103.034018948
100103.03401899
100103.03401903
100103.034019063
100103.034019092
100103.034019115
100103.034019133
100103.034019148
100103.034019159
100103.034019168
100103.034019175
100103.034019181
100103.034019185
100103.034019188
100103.034019191
100103.034019193
100103.034019194
100103.034019195
100103.034019196
100103.034019196
100103.034019197
100103.034019197
100103.034019196
100103.034019195
100103.034019194
100103.034019192
100103.03401919
100103.034019187
100103.034019183
100103.034019178
100103.034019171
100103.034019162
100103.034019151
100103.034019136
100103.034019117
100103.034019094
100103.034019065
100103.034019031
100103.03401899
100103.034018948
100103.034018904
100103.034018875
100103.034018858
100103.034018895
100103.034018902
100103.03174434
100103.031744246
100103.031744122
100103.031744038
100103.031743985
100103.031743966
100103.031743964
100103.031743973
100103.031743987
100103.031744002
100103.031744016
100103.031744029
100103.03174404
100103.031744049
100103.031744056
100103.031744062
100103.031744067
100103.031744071
100103.031744074
100103.031744076
100103.031744078
100103.031744079
100103.03174408
100103.031744081
100103.031744081
100103.031744082
100103.031744081
100103.031744081
100103.03174408
100103.031744079
100103.031744078
100103.031744076
100103.031744073
100103.031744069
100103.031744065
100103.031744059
100103.031744052
100103.031744043
100103.031744032
100103.031744019
100103.031744004
100103.031743989
100103.031743975
100103.031743965
100103.031743966
100103.031743985
100103.031744037
100103.03174412
100103.031744243
100103.031744332
100103.029467509
100103.029467372
100103.029467208
100103.029467066
100103.029466965
100103.029466905
100103.029466873
100103.02946686
100103.029466858
100103.029466863
100103.029466869
100103.029466877
100103.029466885
100103.029466892
100103.029466897
100103.029466902
100103.029466906
100103.02946691
100103.029466912
100103.029466914
100103.029466916
100103.029466917
100103.029466918
100103.029466919
100103.029466919
100103.029466919
100103.029466919
100103.029466919
100103.029466918
100103.029466917
100103.029466916
100103.029466914
100103.029466912
100103.029466909
100103.029466905
100103.0294669
100103.029466894
100103.029466888
100103.02946688
100103.029466872
100103.029466865
100103.029466861
100103.029466862
100103.029466875
100103.029466906
100103.029466966
100103.029467067
100103.029467209
100103.029467374
100103.029467509
100103.027189187
100103.027189037
100103.027188865
100103.027188699
100103.027188575
100103.027188492
100103.027188441
100103.027188413
100103.0271884
100103.027188396
100103.027188397
100103.0271884
100103.027188405
100103.027188409
100103.027188414
100103.027188418
100103.027188421
100103.027188424
100103.027188426
100103.027188428
100103.027188429
100103.02718843
100103.027188431
100103.027188432
100103.027188432
100103.027188432
100103.027188432
100103.027188432
100103.027188431
100103.027188431
100103.027188429
100103.027188428
100103.027188426
100103.027188423
100103.02718842
100103.027188417
100103.027188412
100103.027188408
100103.027188404
100103.0271884
100103.027188399
100103.027188403
100103.027188416
100103.027188443
100103.027188494
100103.027188577
100103.027188702
100103.02718887
100103.027189044
100103.027189193
100103.024909941
100103.024909801
100103.02490964
100103.024909473
100103.024909342
100103.024909249
100103.024909188
100103.024909151
100103.02490913
100103.02490912
100103.024909116
100103.024909116
100103.024909118
100103.02490912
100103.024909123
100103.024909126
100103.024909128
100103.024909131
100103.024909132
100103.024909134
100103.024909135
100103.024909136
100103.024909137
100103.024909138
100103.024909138
100103.024909138
100103.024909138
100103.024909138
100103.024909137
100103.024909137
100103.024909136
100103.024909135
100103.024909133
100103.024909131
100103.024909129
100103.024909126
100103.024909123
100103.024909121
100103.024909119
100103.02490912
100103.024909123
100103.024909134
100103.024909155
100103.024909192
100103.024909253
100103.024909346
100103.024909478
100103.024909648
100103.024909811
100103.024909952
100103.022630161
100103.022630041
100103.022629901
100103.022629745
100103.02262962
100103.022629525
100103.02262946
100103.022629418
100103.022629392
100103.022629377
100103.022629369
100103.022629366
100103.022629365
100103.022629366
100103.022629368
100103.022629369
100103.022629371
100103.022629373
100103.022629374
100103.022629375
100103.022629376
100103.022629377
100103.022629378
100103.022629378
100103.022629379
100103.022629379
100103.022629379
100103.022629379
100103.022629378
100103.022629378
100103.022629377
100103.022629376
100103.022629375
100103.022629374
100103.022629372
100103.022629371
100103.022629369
100103.022629369
100103.022629369
100103.022629373
100103.022629381
100103.022629396
100103.022629422
100103.022629464
100103.022629529
100103.022629624
100103.022629751
100103.022629909
100103.022630052
100103.022630173
100103.02035009
100103.020349994
100103.020349878
100103.02034974
100103.020349625
100103.020349535
100103.02034947
100103.020349425
100103.020349396
100103.020349378
100103.020349367
100103.020349361
100103.020349358
100103.020349358
100103.020349358
100103.020349359
100103.02034936
100103.020349361
100103.020349362
100103.020349363
100103.020349363
100103.020349364
100103.020349365
100103.020349365
100103.020349365
100103.020349366
100103.020349366
100103.020349366
100103.020349365
100103.020349365
100103.020349364
100103.020349364
100103.020349363
100103.020349362
100103.020349362
100103.020349361
100103.020349361
100103.020349362
100103.020349365
100103.020349371
100103.020349382
100103.0203494
100103.020349429
100103.020349474
100103.02034954
100103.020349631
100103.020349747
100103.020349887
100103.020350005
100103.020350104
100103.018069875
100103.018069801
100103.018069707
100103.018069589
100103.018069487
100103.018069403
100103.018069341
100103.018069296
100103.018069265
100103.018069244
100103.018069231
100103.018069223
100103.018069219
100103.018069217
100103.018069216
100103.018069216
100103.018069216
100103.018069216
100103.018069217
100103.018069218
100103.018069218
100103.018069219
100103.018069219
100103.01806922
100103.01806922
100103.01806922
100103.01806922
100103.01806922
100103.01806922
100103.01806922
100103.01806922
100103.018069219
100103.018069219
100103.018069219
100103.018069219
100103.018069219
100103.01806922
100103.018069223
100103.018069227
100103.018069235
100103.018069248
100103.018069269
100103.0180693
100103.018069345
100103.018069408
100103.018069493
100103.018069596
100103.018069716
100103.018069812
100103.018069887
100103.015789593
100103.015789538
100103.015789463
100103.015789364
100103.015789275
100103.015789199
100103.015789141
100103.015789096
100103.015789065
100103.015789043
100103.015789029
100103.015789019
100103.015789013
100103.01578901
100103.015789008
100103.015789007
100103.015789006
100103.015789006
100103.015789007
100103.015789007
100103.015789007
100103.015789008
100103.015789008
100103.015789008
100103.015789009
100103.015789009
100103.015789009
100103.015789009
100103.015789009
100103.015789009
100103.015789009
100103.015789009
100103.015789009
100103.015789009
100103.01578901
100103.015789011
100103.015789013
100103.015789017
100103.015789023
100103.015789033
100103.015789047
100103.015789069
100103.015789101
100103.015789146
100103.015789205
100103.015789282
100103.015789372
100103.015789472
100103.015789548
100103.015789605
100103.013509285
100103.013509245
100103.013509185
100103.013509104
100103.013509027
100103.013508959
100103.013508905
100103.013508863
100103.013508832
100103.013508809
100103.013508794
100103.013508783
100103.013508776
100103.013508771
100103.013508768
100103.013508767
100103.013508766
100103.013508765
100103.013508765
100103.013508765
100103.013508765
100103.013508766
100103.013508766
100103.013508766
100103.013508766
100103.013508766
100103.013508767
100103.013508767
100103.013508767
100103.013508767
100103.013508767
100103.013508767
100103.013508768
100103.013508769
100103.01350877
100103.013508772
100103.013508775
100103.01350878
100103.013508787
100103.013508798
100103.013508813
100103.013508836
100103.013508868
100103.01350891
100103.013508965
100103.013509034
100103.013509111
100103.013509194
100103.013509255
100103.013509296
100103.011228971
100103.011228941
100103.011228894
100103.011228827
100103.011228762
100103.011228701
100103.011228652
100103.011228612
100103.011228582
100103.011228559
100103.011228543
100103.011228531
100103.011228523
100103.011228518
100103.011228514
100103.011228512
100103.011228511
100103.01122851
100103.011228509
100103.011228509
100103.011228509
100103.011228509
100103.011228509
100103.011228509
100103.01122851
100103.01122851
100103.01122851
100103.01122851
100103.01122851
100103.011228511
100103.011228511
100103.011228512
100103.011228512
100103.011228513
100103.011228515
100103.011228518
100103.011228522
100103.011228527
100103.011228535
100103.011228547
100103.011228564
100103.011228586
100103.011228617
100103.011228657
100103.011228707
100103.011228768
100103.011228834
100103.011228902
100103.01122895
100103.011228981
100103.008948657
100103.008948636
100103.008948598
100103.008948543
100103.008948487
100103.008948435
100103.00894839
100103.008948353
100103.008948323
100103.008948301
100103.008948285
100103.008948273
100103.008948264
100103.008948258
100103.008948254
100103.008948251
100103.008948249
100103.008948248
100103.008948247
100103.008948247
100103.008948247
100103.008948246
100103.008948247
100103.008948247
100103.008948247
100103.008948247
100103.008948247
100103.008948247
100103.008948248
100103.008948248
100103.008948249
100103.008948249
100103.008948251
100103.008948252
100103.008948254
100103.008948257
100103.008948262
100103.008948268
100103.008948277
100103.008948289
100103.008948306
100103.008948328
100103.008948358
100103.008948395
100103.008948441
100103.008948494
100103.00894855
100103.008948606
100103.008948644
100103.008948666
100103.006668348
100103.006668332
100103.006668302
100103.006668257
100103.006668209
100103.006668163
100103.006668123
100103.006668088
100103.006668061
100103.006668039
100103.006668023
100103.006668011
100103.006668002
100103.006667995
100103.006667991
100103.006667987
100103.006667985
100103.006667983
100103.006667982
100103.006667982
100103.006667981
100103.006667981
100103.006667981
100103.006667981
100103.006667981
100103.006667981
100103.006667982
100103.006667982
100103.006667982
100103.006667983
100103.006667984
100103.006667985
100103.006667986
100103.006667988
100103.00666799
100103.006667994
100103.006667999
100103.006668006
100103.006668015
100103.006668027
100103.006668044
100103.006668066
100103.006668094
100103.006668128
100103.006668169
100103.006668216
100103.006668264
100103.00666831
100103.00666834
100103.006668356
100103.004388043
100103.004388031
100103.004388007
100103.00438797
100103.004387929
100103.004387889
100103.004387853
100103.004387822
100103.004387796
100103.004387775
100103.004387759
100103.004387747
100103.004387738
100103.004387731
100103.004387726
100103.004387722
100103.004387719
100103.004387718
100103.004387716
100103.004387716
100103.004387715
100103.004387715
100103.004387715
100103.004387715
100103.004387715
100103.004387715
100103.004387715
100103.004387715
100103.004387716
100103.004387717
100103.004387717
100103.004387719
100103.00438772
100103.004387722
100103.004387725
100103.004387729
100103.004387734
100103.004387741
100103.004387751
100103.004387763
100103.00438778
100103.004387801
100103.004387827
100103.004387858
100103.004387895
100103.004387936
100103.004387977
100103.004388015
100103.004388039
100103.004388051
100103.002107742
100103.002107733
100103.002107714
100103.002107683
100103.002107649
100103.002107614
100103.002107581
100103.002107553
100103.002107529
100103.002107509
100103.002107494
100103.002107482
100103.002107472
100103.002107465
100103.00210746
100103.002107456
100103.002107453
100103.002107451
100103.00210745
100103.002107449
100103.002107448
100103.002107448
100103.002107448
100103.002107448
100103.002107448
100103.002107448
100103.002107448
100103.002107449
100103.002107449
100103.00210745
100103.002107451
100103.002107452
100103.002107454
100103.002107456
100103.002107459
100103.002107463
100103.002107469
100103.002107476
100103.002107486
100103.002107498
100103.002107514
100103.002107534
100103.002107558
100103.002107587
100103.00210762
100103.002107655
100103.00210769
100103.002107721
100103.002107741
100103.002107749
100102.999827445
100102.999827438
100102.999827422
100102.999827397
100102.999827368
100102.999827337
100102.999827309
100102.999827283
100102.999827261
100102.999827242
100102.999827228
100102.999827216
100102.999827207
100102.9998272
100102.999827194
100102.99982719
100102.999827187
100102.999827185
100102.999827183
100102.999827182
100102.999827181
100102.999827181
100102.999827181
100102.99982718
100102.999827181
100102.999827181
100102.999827181
100102.999827181
100102.999827182
100102.999827183
100102.999827184
100102.999827185
100102.999827187
100102.99982719
100102.999827193
100102.999827197
100102.999827203
100102.99982721
100102.99982722
100102.999827232
100102.999827247
100102.999827266
100102.999827288
100102.999827314
100102.999827343
100102.999827374
100102.999827403
100102.999827429
100102.999827445
100102.999827452
100102.99754715
100102.997547145
100102.997547133
100102.997547111
100102.997547087
100102.99754706
100102.997547035
100102.997547012
100102.997546992
100102.997546975
100102.997546961
100102.997546949
100102.99754694
100102.997546933
100102.997546928
100102.997546924
100102.99754692
100102.997546918
100102.997546916
100102.997546915
100102.997546914
100102.997546914
100102.997546913
100102.997546913
100102.997546913
100102.997546913
100102.997546914
100102.997546914
100102.997546915
100102.997546916
100102.997546917
100102.997546919
100102.997546921
100102.997546923
100102.997546927
100102.997546931
100102.997546937
100102.997546944
100102.997546953
100102.997546965
100102.997546979
100102.997546997
100102.997547017
100102.997547041
100102.997547066
100102.997547093
100102.997547118
100102.997547139
100102.997547152
100102.997547157
100102.995266858
100102.995266855
100102.995266844
100102.995266827
100102.995266806
100102.995266783
100102.995266761
100102.99526674
100102.995266722
100102.995266706
100102.995266693
100102.995266682
100102.995266673
100102.995266666
100102.995266661
100102.995266657
100102.995266654
100102.995266651
100102.995266649
100102.995266648
100102.995266647
100102.995266647
100102.995266646
100102.995266646
100102.995266646
100102.995266646
100102.995266647
100102.995266647
100102.995266648
100102.995266649
100102.99526665
100102.995266652
100102.995266654
100102.995266656
100102.99526666
100102.995266664
100102.99526667
100102.995266677
100102.995266686
100102.995266697
100102.99526671
100102.995266727
100102.995266745
100102.995266766
100102.995266789
100102.995266812
100102.995266833
100102.995266851
100102.995266861
100102.995266865
100102.992986568
100102.992986566
100102.992986557
100102.992986543
100102.992986525
100102.992986506
100102.992986486
100102.992986468
100102.992986451
100102.992986437
100102.992986425
100102.992986414
100102.992986406
100102.992986399
100102.992986394
100102.99298639
100102.992986387
100102.992986384
100102.992986382
100102.992986381
100102.99298638
100102.992986379
100102.992986379
100102.992986379
100102.992986379
100102.992986379
100102.992986379
100102.99298638
100102.992986381
100102.992986382
100102.992986383
100102.992986384
100102.992986387
100102.992986389
100102.992986393
100102.992986397
100102.992986403
100102.99298641
100102.992986418
100102.992986429
100102.992986441
100102.992986456
100102.992986473
100102.992986492
100102.992986511
100102.992986531
100102.992986549
100102.992986564
100102.992986572
100102.992986575
100102.99070628
100102.990706278
100102.990706272
100102.99070626
100102.990706245
100102.990706229
100102.990706212
100102.990706195
100102.99070618
100102.990706167
100102.990706156
100102.990706146
100102.990706138
100102.990706132
100102.990706127
100102.990706123
100102.99070612
100102.990706117
100102.990706115
100102.990706114
100102.990706113
100102.990706112
100102.990706112
100102.990706112
100102.990706112
100102.990706112
100102.990706112
100102.990706113
100102.990706113
100102.990706114
100102.990706116
100102.990706117
100102.990706119
100102.990706122
100102.990706126
100102.99070613
100102.990706135
100102.990706142
100102.99070615
100102.99070616
100102.990706171
100102.990706185
100102.9907062
100102.990706217
100102.990706234
100102.990706251
100102.990706266
100102.990706278
100102.990706284
100102.990706286
100102.988425993
100102.988425992
100102.988425987
100102.988425978
100102.988425965
100102.988425951
100102.988425937
100102.988425922
100102.988425909
100102.988425897
100102.988425887
100102.988425878
100102.98842587
100102.988425864
100102.988425859
100102.988425856
100102.988425852
100102.98842585
100102.988425848
100102.988425847
100102.988425846
100102.988425845
100102.988425844
100102.988425844
100102.988425844
100102.988425844
100102.988425845
100102.988425845
100102.988425846
100102.988425847
100102.988425848
100102.98842585
100102.988425852
100102.988425855
100102.988425858
100102.988425862
100102.988425867
100102.988425874
100102.988425881
100102.98842589
100102.988425901
100102.988425913
100102.988425927
100102.988425941
100102.988425956
100102.988425971
100102.988425983
100102.988425993
100102.988425998
100102.988425999
100102.986145708
100102.986145707
100102.986145703
100102.986145696
100102.986145686
100102.986145674
100102.986145661
100102.986145649
100102.986145637
100102.986145627
100102.986145617
100102.986145609
100102.986145602
100102.986145596
100102.986145592
100102.986145588
100102.986145585
100102.986145583
100102.986145581
100102.986145579
100102.986145578
100102.986145578
100102.986145577
100102.986145577
100102.986145577
100102.986145577
100102.986145577
100102.986145578
100102.986145579
100102.98614558
100102.986145581
100102.986145583
100102.986145585
100102.986145587
100102.986145591
100102.986145595
100102.986145599
100102.986145605
100102.986145612
100102.986145621
100102.98614563
100102.986145641
100102.986145653
100102.986145666
100102.986145679
100102.986145691
100102.986145701
100102.986145709
100102.986145713
100102.986145713
100102.983865423
100102.983865423
100102.98386542
100102.983865415
100102.983865407
100102.983865397
100102.983865386
100102.983865375
100102.983865365
100102.983865356
100102.983865347
100102.98386534
100102.983865334
100102.983865328
100102.983865324
100102.98386532
100102.983865318
100102.983865315
100102.983865313
100102.983865312
100102.983865311
100102.98386531
100102.98386531
100102.98386531
100102.98386531
100102.98386531
100102.98386531
100102.983865311
100102.983865311
100102.983865312
100102.983865314
100102.983865315
100102.983865317
100102.98386532
100102.983865323
100102.983865327
100102.983865331
100102.983865337
100102.983865343
100102.983865351
100102.98386536
100102.983865369
100102.98386538
100102.983865391
100102.983865402
100102.983865412
100102.98386542
100102.983865426
100102.983865429
100102.983865428
100102.981585139
100102.98158514
100102.981585138
100102.981585134
100102.981585128
100102.98158512
100102.981585111
100102.981585102
100102.981585093
100102.981585085
100102.981585077
100102.981585071
100102.981585065
100102.98158506
100102.981585056
100102.981585053
100102.98158505
100102.981585048
100102.981585046
100102.981585045
100102.981585044
100102.981585043
100102.981585043
100102.981585042
100102.981585042
100102.981585042
100102.981585043
100102.981585043
100102.981585044
100102.981585045
100102.981585046
100102.981585048
100102.98158505
100102.981585052
100102.981585055
100102.981585058
100102.981585063
100102.981585068
100102.981585074
100102.981585081
100102.981585088
100102.981585097
100102.981585106
100102.981585115
100102.981585124
100102.981585133
100102.981585139
100102.981585143
100102.981585145
100102.981585144
100102.979304856
100102.979304857
100102.979304857
100102.979304854
100102.979304849
100102.979304843
100102.979304836
100102.979304828
100102.979304821
100102.979304813
100102.979304807
100102.979304801
100102.979304796
100102.979304791
100102.979304788
100102.979304785
100102.979304782
100102.97930478
100102.979304778
100102.979304777
100102.979304776
100102.979304776
100102.979304775
100102.979304775
100102.979304775
100102.979304775
100102.979304775
100102.979304776
100102.979304776
100102.979304777
100102.979304779
100102.97930478
100102.979304782
100102.979304784
100102.979304787
100102.97930479
100102.979304794
100102.979304799
100102.979304804
100102.97930481
100102.979304817
100102.979304824
100102.979304832
100102.97930484
100102.979304848
100102.979304854
100102.979304859
100102.979304862
100102.979304862
100102.979304861
100102.977024573
100102.977024575
100102.977024576
100102.977024575
100102.977024571
100102.977024567
100102.977024561
100102.977024555
100102.977024548
100102.977024542
100102.977024536
100102.977024531
100102.977024527
100102.977024523
100102.977024519
100102.977024517
100102.977024514
100102.977024512
100102.977024511
100102.97702451
100102.977024509
100102.977024508
100102.977024508
100102.977024507
100102.977024507
100102.977024508
100102.977024508
100102.977024508
100102.977024509
100102.97702451
100102.977024511
100102.977024512
100102.977024514
100102.977024516
100102.977024519
100102.977024522
100102.977024525
100102.977024529
100102.977024534
100102.97702454
100102.977024546
100102.977024552
100102.977024558
100102.977024565
100102.977024571
100102.977024576
100102.977024579
100102.97702458
100102.97702458
100102.977024578
100102.974744291
100102.974744294
100102.974744295
100102.974744295
100102.974744294
100102.97474429
100102.974744286
100102.974744281
100102.974744276
100102.974744271
100102.974744266
100102.974744261
100102.974744258
100102.974744254
100102.974744251
100102.974744249
100102.974744246
100102.974744245
100102.974744243
100102.974744242
100102.974744241
100102.974744241
100102.97474424
100102.97474424
100102.97474424
100102.97474424
100102.97474424
100102.974744241
100102.974744241
100102.974744242
100102.974744243
100102.974744245
100102.974744246
100102.974744248
100102.974744251
100102.974744253
100102.974744256
100102.97474426
100102.974744264
100102.974744269
100102.974744274
100102.974744279
100102.974744285
100102.97474429
100102.974744294
100102.974744298
100102.9747443
100102.9747443
100102.974744299
100102.974744296
100102.972464009
100102.972464013
100102.972464015
100102.972464017
100102.972464016
100102.972464014
100102.972464011
100102.972464008
100102.972464003
100102.972463999
100102.972463995
100102.972463992
100102.972463988
100102.972463985
100102.972463983
100102.97246398
100102.972463978
100102.972463977
100102.972463976
100102.972463975
100102.972463974
100102.972463973
100102.972463973
100102.972463973
100102.972463973
100102.972463973
100102.972463973
100102.972463973
100102.972463974
100102.972463975
100102.972463976
100102.972463977
100102.972463978
100102.97246398
100102.972463982
100102.972463985
100102.972463987
100102.972463991
100102.972463994
100102.972463998
100102.972464002
100102.972464007
100102.972464011
100102.972464015
100102.972464018
100102.97246402
100102.972464021
100102.97246402
100102.972464017
100102.972464014
100102.970183727
100102.970183732
100102.970183735
100102.970183738
100102.970183739
100102.970183739
100102.970183737
100102.970183734
100102.970183731
100102.970183728
100102.970183725
100102.970183722
100102.970183719
100102.970183716
100102.970183714
100102.970183712
100102.97018371
100102.970183709
100102.970183708
100102.970183707
100102.970183706
100102.970183706
100102.970183705
100102.970183705
100102.970183705
100102.970183705
100102.970183705
100102.970183706
100102.970183706
100102.970183707
100102.970183708
100102.970183709
100102.97018371
100102.970183712
100102.970183714
100102.970183716
100102.970183718
100102.970183721
100102.970183724
100102.970183727
100102.970183731
100102.970183734
100102.970183737
100102.97018374
100102.970183742
100102.970183743
100102.970183742
100102.97018374
100102.970183737
100102.970183732
100102.967903446
100102.967903452
100102.967903456
100102.967903461
100102.967903462
100102.967903463
100102.967903462
100102.967903461
100102.967903459
100102.967903456
100102.967903454
100102.967903452
100102.967903449
100102.967903447
100102.967903445
100102.967903444
100102.967903442
100102.967903441
100102.96790344
100102.967903439
100102.967903439
100102.967903438
100102.967903438
100102.967903438
100102.967903438
100102.967903438
100102.967903438
100102.967903438
100102.967903439
100102.967903439
100102.96790344
100102.967903441
100102.967903442
100102.967903444
100102.967903445
100102.967903447