/*--------------------------------*- C++ -*----------------------------------*\
  =========                 |
  \\      /  F ield         | OpenFOAM: The Open Source CFD Toolbox
   \\    /   O peration     | Website:  https://openfoam.org
    \\  /    A nd           | Version:  10
     \\/     M anipulation  |
\*---------------------------------------------------------------------------*/
FoamFile
{
    format      ascii;
    class       volScalarField;
    location    "8.8";
    object      p_rgh;
}
// * * * * * * * * * * * * * * * * * * * * * * * * * * * * * * * * * * * * * //

dimensions      [1 -1 -2 0 0 0 0];

internalField   nonuniform List<scalar> 
2500
(
103.1588817218
103.158883024065
103.158886976278
103.158890390521
103.158892795487
103.158894384207
103.158895394154
103.15889602658
103.158896414767
103.158896649344
103.158896789566
103.15889687273
103.158896922163
103.158896952169
103.158896970854
103.15889698299
103.158896991037
103.158896996698
103.158897000831
103.158897003857
103.158897006084
103.158897007728
103.158897008921
103.158897009736
103.158897010202
103.158897010391
103.158897010246
103.158897009765
103.158897008892
103.158897007539
103.158897005575
103.158897002781
103.158896998852
103.158896993293
103.158896985187
103.158896972993
103.158896953959
103.158896923458
103.158896872905
103.158896788518
103.158896647117
103.158896411245
103.158896022956
103.158895392015
103.158894384236
103.158892797452
103.158890385763
103.158886948862
103.158882974603
103.158881726442
103.159148160819
103.159154901703
103.159164994649
103.159173290653
103.159179099108
103.159182921809
103.159185352983
103.15918686791
103.15918778989
103.159188337871
103.159188655743
103.159188836187
103.159188936988
103.159188993101
103.159189024605
103.159189042781
103.159189053637
103.159189060549
103.159189065205
103.15918906845
103.159189070779
103.159189072481
103.159189073689
103.159189074519
103.159189075013
103.159189075202
103.159189075042
103.159189074562
103.15918907366
103.159189072278
103.159189070197
103.159189067155
103.15918906263
103.159189055688
103.159189044556
103.159189025886
103.159188993435
103.15918893581
103.159188832709
103.159188649588
103.159188329082
103.15918777934
103.159186858407
103.159185348777
103.159182926422
103.159179109629
103.159173284992
103.15916493164
103.159154780515
103.159148291641
103.159436251808
103.159449274055
103.159464178199
103.159475891851
103.159483970681
103.159489239231
103.159492569219
103.159494632622
103.159495882122
103.159496620632
103.15949704581
103.159497284709
103.159497416258
103.159497487897
103.159497526969
103.159497548666
103.159497561137
103.159497568733
103.159497573652
103.159497576999
103.159497579356
103.159497581073
103.159497582295
103.159497583125
103.15949758362
103.159497583794
103.159497583649
103.159497583169
103.159497582266
103.159497580869
103.159497578759
103.159497575587
103.159497570756
103.159497563087
103.159497550267
103.1594975279
103.159497487621
103.159497414075
103.15949727979
103.159497037617
103.159496609223
103.159495868735
103.159494620588
103.159492563616
103.15948924367
103.159483977812
103.159475865323
103.159464049444
103.159449017679
103.159436267408
103.159715415604
103.159732917688
103.159749897721
103.159762666488
103.159771245395
103.159776720073
103.159780114496
103.159782182294
103.159783416238
103.159784136486
103.159784546733
103.159784775184
103.159784900083
103.159784967735
103.159785004522
103.159785024938
103.15978503674
103.159785043943
103.159785048643
103.159785051874
103.159785054188
103.159785055846
103.159785057054
103.159785057869
103.159785058349
103.159785058524
103.159785058393
103.159785057913
103.15978505704
103.159785055672
103.159785053649
103.159785050622
103.159785046024
103.159785038777
103.159785026743
103.159785005788
103.15978496804
103.159784898802
103.159784771604
103.159784540287
103.159784126998
103.15978340451
103.159782170798
103.159780106973
103.159776717977
103.159771236533
103.159762603493
103.159749689294
103.159732498185
103.159715118454
103.159961733021
103.15998084638
103.159997437484
103.160009397703
103.160017211281
103.160022081429
103.160025039149
103.160026809492
103.160027850885
103.160028452141
103.160028791914
103.160028980274
103.160029083228
103.160029139224
103.160029169987
103.160029187362
103.160029197636
103.160029204082
103.16002920836
103.160029211373
103.16002921357
103.160029215156
103.160029216306
103.160029217106
103.160029217586
103.160029217761
103.160029217615
103.160029217179
103.160029216349
103.160029215069
103.160029213162
103.160029210369
103.160029206221
103.160029199804
103.160029189428
103.160029171762
103.160029140388
103.160029083345
103.160028978818
103.160028788392
103.160028446306
103.160027843071
103.160026801022
103.160025032077
103.160022074735
103.160017189395
103.160009307641
103.159997173003
103.159980296448
103.159961095924
103.160161740074
103.160179773418
103.160194182303
103.160204161279
103.160210495887
103.160214348536
103.160216638891
103.160217985875
103.160218767604
103.160219214813
103.160219466285
103.16021960575
103.160219682424
103.160219724698
103.160219748432
103.160219762271
103.160219770754
103.160219776299
103.160219780111
103.160219782862
103.160219784884
103.160219786398
103.160219787504
103.16021978826
103.160219788726
103.160219788886
103.16021978877
103.160219788348
103.160219787576
103.160219786383
103.160219784651
103.160219782148
103.160219778496
103.160219773068
103.160219764584
103.160219750658
103.160219726618
103.160219683778
103.160219606216
103.160219465557
103.160219212557
103.160218763922
103.160217981349
103.160216634162
103.160214341144
103.160210469447
103.160204063461
103.16019390311
103.160179168393
103.160160867134
103.160312390508
103.160327561694
103.160338906731
103.160346466946
103.160351127692
103.160353890606
103.160355497006
103.160356424996
103.160356956534
103.160357258326
103.160357427711
103.160357522094
103.160357574685
103.160357604371
103.160357621644
103.160357632165
103.160357638961
103.160357643588
103.160357646906
103.16035764938
103.160357651228
103.160357652625
103.160357653673
103.160357654386
103.160357654808
103.160357654997
103.160357654895
103.160357654517
103.160357653818
103.160357652741
103.16035765117
103.160357648958
103.160357645844
103.160357641362
103.160357634682
103.160357624191
103.160357606845
103.16035757694
103.160357523957
103.160357428962
103.160357258763
103.160356956127
103.160356423919
103.160355495304
103.16035388544
103.160351104394
103.160346379242
103.160338652291
103.160326984042
103.16031144069
103.160418320142
103.160429919968
103.160438122752
103.160443384812
103.16044653159
103.160448345894
103.160449375384
103.160449958523
103.160450287935
103.160450473675
103.160450578012
103.160450636758
103.160450670213
103.160450689786
103.160450701733
103.160450709445
103.160450714728
103.160450718526
103.160450721363
103.160450723532
103.160450725205
103.160450726486
103.160450727431
103.160450728101
103.160450728523
103.160450728697
103.160450728639
103.160450728305
103.160450727679
103.160450726718
103.160450725351
103.160450723459
103.160450720839
103.160450717231
103.160450712108
103.160450704498
103.160450692609
103.160450673022
103.160450639436
103.160450580472
103.160450475785
103.160450289652
103.160449959905
103.160449376344
103.16044834409
103.160446515511
103.160443317465
103.160437917817
103.160429430209
103.160417436695
103.160488223133
103.160496387572
103.160501882478
103.160505271153
103.160507231383
103.160508325236
103.160508927758
103.160509260561
103.160509445166
103.160509548325
103.160509606387
103.160509639594
103.160509659152
103.160509671201
103.160509679074
103.160509684516
103.160509688518
103.160509691545
103.160509693902
103.160509695794
103.160509697263
103.160509698399
103.160509699272
103.160509699883
103.16050970029
103.160509700465
103.160509700421
103.16050970013
103.160509699606
103.160509698791
103.160509697627
103.160509696041
103.160509693917
103.160509691108
103.160509687281
103.160509681999
103.160509674257
103.160509662281
103.160509642737
103.160509609486
103.160509551351
103.160509448091
103.160509263456
103.16050893061
103.160508326531
103.160507223103
103.160505226348
103.160501734557
103.160496012977
103.160487495043
103.160531713525
103.160537051881
103.160540483237
103.160542508485
103.160543634294
103.160544235419
103.160544552404
103.160544720347
103.160544810395
103.160544859638
103.160544887258
103.16054490341
103.160544913437
103.160544920102
103.160544924904
103.160544928556
103.160544931437
103.16054493378
103.160544935687
103.160544937258
103.16054493851
103.160544939514
103.160544940285
103.160544940853
103.160544941216
103.160544941406
103.160544941391
103.160544941173
103.160544940736
103.160544940081
103.160544939121
103.160544937855
103.160544936196
103.1605449341
103.160544931408
103.16054492793
103.160544923303
103.16054491674
103.160544906816
103.160544890707
103.160544863131
103.160544813945
103.160544724073
103.160544556391
103.160544238926
103.160543632359
103.160542483063
103.160540387034
103.160536790645
103.160531170681
103.160557323878
103.160560588105
103.160562592573
103.160563713303
103.160564302874
103.160564595513
103.160564737278
103.160564805235
103.160564838094
103.160564854479
103.16056486321
103.160564868434
103.160564872072
103.160564874968
103.160564877457
103.160564879639
103.160564881575
103.160564883277
103.160564884747
103.160564885999
103.160564887032
103.16056488789
103.16056488856
103.160564889055
103.160564889404
103.160564889578
103.160564889607
103.160564889447
103.160564889127
103.160564888603
103.16056488789
103.160564886944
103.160564885737
103.160564884281
103.160564882564
103.160564880556
103.160564878257
103.160564875521
103.160564872
103.160564866863
103.160564858234
103.160564841979
103.160564809397
103.160564741891
103.160564600359
103.160564305217
103.160563702026
103.160562536519
103.160560421064
103.160556952978
103.160571645101
103.160573520378
103.160574615977
103.160575183225
103.16057545488
103.160575569404
103.160575611852
103.16057562358
103.160575624104
103.160575621558
103.160575619026
103.16057561741
103.160575616814
103.160575616988
103.160575617687
103.160575618662
103.160575619768
103.160575620874
103.160575621907
103.160575622853
103.160575623668
103.160575624366
103.160575624919
103.160575625356
103.160575625676
103.16057562585
103.160575625909
103.160575625836
103.160575625618
103.160575625254
103.160575624759
103.160575624133
103.160575623362
103.160575622518
103.160575621645
103.160575620874
103.160575620364
103.16057562035
103.160575621092
103.160575622838
103.160575625487
103.160575628222
103.160575628004
103.160575616799
103.160575574933
103.160575459711
103.160575181013
103.1605745876
103.160573422545
103.160571411179
103.160579268617
103.160580283409
103.160580840646
103.16058109382
103.160581191143
103.160581210934
103.16058120165
103.160581184158
103.160581167642
103.160581154691
103.16058114561
103.160581139731
103.160581136253
103.160581134449
103.160581133721
103.160581133678
103.160581134041
103.16058113458
103.16058113522
103.16058113586
103.160581136457
103.160581136981
103.160581137432
103.16058113781
103.160581138087
103.160581138276
103.160581138363
103.160581138349
103.160581138247
103.160581138058
103.160581137781
103.160581137461
103.160581137112
103.160581136835
103.160581136719
103.160581136981
103.160581137898
103.160581139877
103.160581143515
103.160581149554
103.160581158765
103.160581171935
103.160581188771
103.160581206772
103.160581216798
103.16058119724
103.160581096803
103.160580829543
103.160580231619
103.160579132164
103.160583136632
103.160583653807
103.160583912992
103.160584000987
103.160584010606
103.160583984805
103.160583951292
103.160583920137
103.160583895355
103.160583877005
103.160583864199
103.160583855642
103.160583850156
103.160583846853
103.160583844976
103.160583844074
103.160583843739
103.160583843783
103.16058384403
103.160583844365
103.160583844743
103.160583845121
103.160583845456
103.160583845762
103.160583846009
103.160583846198
103.160583846315
103.160583846387
103.160583846387
103.160583846358
103.160583846315
103.160583846286
103.160583846329
103.160583846562
103.160583847144
103.160583848279
103.16058385036
103.160583853853
103.160583859513
103.160583868244
103.160583881225
103.160583899808
103.16058392491
103.16058395656
103.160583990801
103.160584017227
103.160584006648
103.160583911726
103.160583630146
103.160583063494
103.16058500552
103.16058525251
103.160585357284
103.160585365753
103.160585336009
103.160585291509
103.160585248668
103.160585212288
103.160585184072
103.160585163176
103.160585148289
103.16058513803
103.160585131147
103.160585126665
103.160585123886
103.160585122198
103.160585121295
103.160585120859
103.160585120742
103.160585120801
103.160585120961
103.160585121193
103.160585121426
103.160585121659
103.160585121863
103.160585122052
103.160585122198
103.160585122343
103.160585122459
103.160585122576
103.160585122736
103.160585122998
103.16058512342
103.160585124118
103.160585125297
103.160585127218
103.160585130216
103.160585134916
103.160585141974
103.160585152451
103.160585167512
103.160585188671
103.160585217207
103.160585254052
103.160585297563
103.160585342834
103.160585372621
103.160585361155
103.160585244768
103.160584970421
103.160585860678
103.160585969585
103.160586000013
103.160585974678
103.160585930687
103.160585881124
103.160585836493
103.16058579924
103.160585770194
103.160585748308
103.160585732388
103.160585721067
103.16058571318
103.160585707825
103.16058570426
103.160585701946
103.160585700505
103.160585699647
103.160585699196
103.160585698992
103.160585698963
103.160585699035
103.160585699166
103.160585699326
103.160585699501
103.16058569969
103.160585699879
103.160585700083
103.160585700301
103.160585700578
103.160585700942
103.160585701451
103.160585702208
103.160585703343
103.160585705045
103.160585707607
103.160585711405
103.160585716993
103.160585725069
103.160585736608
103.160585752761
103.160585774895
103.160585804275
103.160585841964
103.160585887206
103.160585937512
103.160585981954
103.160586006255
103.160585970181
103.160585846912
103.160586225131
103.160586267652
103.160586265425
103.160586229002
103.16058618277
103.160586134531
103.160586091661
103.160586055645
103.160586027137
103.160586005208
103.160585988866
103.160585976919
103.160585968348
103.160585962323
103.160585958147
103.160585955295
103.160585953403
103.160585952181
103.160585951424
103.160585950987
103.160585950769
103.160585950696
103.16058595074
103.160585950827
103.160585950973
103.160585951162
103.16058595138
103.160585951642
103.160585951962
103.16058595237
103.160585952908
103.160585953665
103.160585954727
103.160585956241
103.160585958394
103.160585961508
103.160585965918
103.160585972189
103.16058598095
103.160585993144
103.160586009733
103.160586031925
103.160586060767
103.160586097205
103.160586140628
103.160586189537
103.160586236321
103.160586272628
103.160586272264
103.160586222511
103.160586362734
103.160586375496
103.160586360988
103.160586323749
103.160586280457
103.160586236176
103.160586196551
103.160586162776
103.160586135491
103.160586114056
103.1605860977
103.160586085462
103.160586076468
103.160586069949
103.160586065293
103.160586062018
103.160586059734
103.160586058191
103.160586057173
103.160586056518
103.160586056139
103.16058605595
103.160586055892
103.160586055921
103.160586056038
103.160586056212
103.16058605646
103.16058605678
103.160586057187
103.160586057726
103.160586058439
103.160586059399
103.160586060723
103.160586062557
103.160586065103
103.16058606864
103.160586073558
103.16058608031
103.160586089536
103.160586102007
103.160586118611
103.160586140337
103.160586167942
103.160586202124
103.160586242258
103.160586287122
103.160586330967
103.160586368424
103.16058638184
103.160586365571
103.160586400496
103.160586401078
103.160586383528
103.160586349593
103.160586311016
103.160586271537
103.160586235637
103.160586204453
103.160586178768
103.160586158177
103.160586142112
103.160586129845
103.160586120619
103.16058611378
103.160586108774
103.16058610515
103.16058610256
103.160586100756
103.160586099504
103.16058609866
103.160586098136
103.160586097816
103.160586097685
103.160586097656
103.160586097743
103.160586097918
103.160586098194
103.160586098558
103.160586099053
103.160586099693
103.160586100552
103.160586101701
103.160586103259
103.160586105354
103.160586108221
103.160586112106
103.160586117359
103.160586124446
103.160586133905
103.160586146434
103.160586162747
103.160586183629
103.160586209648
103.160586241196
103.160586277547
103.160586317565
103.160586356622
103.160586390877
103.160586408019
103.160586405764
103.160586396843
103.160586393205
103.160586376398
103.160586346959
103.160586313446
103.160586278711
103.16058624658
103.160586218117
103.160586194208
103.160586174636
103.160586159109
103.160586146987
103.160586137703
103.160586130674
103.16058612545
103.160586121579
103.160586118742
103.160586116719
103.160586115264
103.160586114274
103.160586113605
103.160586113197
103.160586112979
103.160586112906
103.160586112979
103.160586113139
103.16058611343
103.160586113838
103.160586114405
103.160586115147
103.160586116137
103.160586117447
103.160586119178
103.160586121507
103.160586124606
103.160586128753
103.160586134225
103.160586141501
103.160586151032
103.160586163416
103.160586179205
103.160586199054
103.160586223283
103.16058625211
103.160586284663
103.160586319835
103.160586353799
103.160586383528
103.160586400219
103.160586403057
103.160586377431
103.16058637292
103.16058635815
103.160586333222
103.160586304439
103.160586274156
103.160586245591
103.160586219819
103.16058619773
103.160586179365
103.160586164493
103.160586152691
103.160586143495
103.160586136408
103.160586131038
103.160586126993
103.16058612398
103.160586121769
103.160586120182
103.160586119047
103.160586118276
103.160586117781
103.16058611749
103.160586117388
103.160586117418
103.160586117592
103.160586117898
103.160586118334
103.16058611896
103.16058611979
103.160586120866
103.160586122307
103.160586124199
103.160586126702
103.160586129976
103.160586134283
103.160586139929
103.160586147249
103.160586156708
103.160586168757
103.160586183891
103.160586202546
103.160586224942
103.160586251048
103.160586280006
103.160586310696
103.160586339844
103.160586365047
103.160586379774
103.160586383907
103.160586353013
103.160586348895
103.160586336438
103.160586315586
103.160586291007
103.160586264756
103.160586239494
103.160586216312
103.160586196085
103.160586178958
103.160586164871
103.160586153521
103.160586144513
103.160586137485
103.160586132057
103.160586127924
103.160586124795
103.160586122467
103.16058612075
103.160586119513
103.160586118654
103.160586118072
103.160586117738
103.160586117592
103.160586117607
103.160586117767
103.160586118087
103.160586118567
103.160586119222
103.160586120124
103.160586121303
103.160586122831
103.160586124839
103.160586127458
103.160586130864
103.160586135258
103.160586140933
103.160586148224
103.160586157464
103.160586169077
103.160586183425
103.160586200829
103.160586221362
103.160586244878
103.160586270489
103.160586297105
103.160586321988
103.160586343074
103.160586355531
103.160586359474
103.160586327824
103.160586324491
103.160586314189
103.160586296857
103.160586276004
103.160586253332
103.160586231097
103.160586210346
103.160586191952
103.160586176135
103.160586162907
103.160586152095
103.160586143407
103.16058613651
103.160586131125
103.160586126949
103.160586123762
103.160586121347
103.160586119542
103.160586118232
103.160586117301
103.160586116661
103.160586116283
103.160586116108
103.160586116093
103.160586116253
103.160586116588
103.160586117083
103.160586117796
103.160586118727
103.160586119964
103.160586121579
103.160586123675
103.160586126352
103.160586129816
103.160586134254
103.1605861399
103.160586147031
103.16058615598
103.160586167054
103.160586180529
103.160586196624
103.160586215308
103.160586236365
103.160586258935
103.160586281927
103.160586303056
103.160586320562
103.160586330894
103.160586334139
103.160586303347
103.160586300859
103.160586292477
103.160586278173
103.16058626055
103.160586241051
103.160586221595
103.160586203128
103.160586186495
103.160586171987
103.160586159691
103.160586149475
103.160586141166
103.160586134502
103.160586129219
103.160586125072
103.16058612187
103.160586119411
103.160586117563
103.160586116195
103.160586115206
103.160586114536
103.160586114114
103.160586113896
103.160586113881
103.160586114042
103.160586114376
103.1605861149
103.160586115628
103.160586116603
103.160586117883
103.160586119542
103.160586121681
103.160586124402
103.160586127866
103.160586132275
103.160586137805
103.160586144731
103.160586153288
103.160586163736
103.160586176295
103.160586191079
103.160586207989
103.160586226746
103.160586246508
103.160586266284
103.160586284153
103.160586298618
103.160586307014
103.160586309474
103.160586279977
103.160586278274
103.160586271566
103.160586259881
103.160586245067
103.16058622842
103.160586211481
103.160586195154
103.160586180224
103.16058616701
103.160586155675
103.160586146128
103.16058613827
103.160586131882
103.16058612676
103.1605861227
103.160586119528
103.160586117068
103.160586115191
103.160586113794
103.160586112775
103.160586112062
103.160586111626
103.160586111393
103.160586111364
103.160586111509
103.160586111844
103.160586112368
103.160586113125
103.160586114114
103.160586115424
103.160586117112
103.160586119266
103.160586121987
103.160586125421
103.160586129728
103.160586135098
103.160586141734
103.160586149839
103.160586159633
103.160586171216
103.160586184706
103.160586199898
103.160586216487
103.160586233716
103.160586250611
103.160586265658
103.160586277489
103.160586284226
103.160586285914
103.160586257742
103.160586256752
103.160586251513
103.160586242098
103.160586229758
103.160586215628
103.160586200989
103.16058618667
103.16058617337
103.160586161437
103.160586151047
103.160586142214
103.160586134851
103.160586128783
103.160586123879
103.16058611995
103.16058611685
103.16058611442
103.160586112557
103.160586111146
103.160586110112
103.160586109385
103.160586108919
103.160586108672
103.160586108628
103.160586108774
103.160586109108
103.160586109647
103.160586110404
103.160586111408
103.160586112717
103.160586114405
103.160586116544
103.160586119237
103.160586122583
103.16058612676
103.160586131911
103.160586138212
103.160586145823
103.160586154889
103.160586165526
103.160586177706
103.160586191269
103.16058620585
103.160586220751
103.160586235128
103.160586247672
103.160586257232
103.1605862625
103.16058626349
103.160586236467
103.160586236176
103.160586232247
103.160586224796
103.160586214653
103.160586202808
103.160586190264
103.160586177793
103.16058616605
103.160586155369
103.160586145939
103.160586137834
103.160586130994
103.160586125305
103.160586120663
103.160586116908
103.160586113911
103.160586111539
103.160586109705
103.160586108308
103.160586107275
103.160586106533
103.160586106053
103.160586105805
103.160586105761
103.160586105892
103.160586106227
103.160586106766
103.160586107522
103.160586108526
103.160586109821
103.16058611148
103.160586113576
103.160586116195
103.16058611944
103.160586123442
103.160586128331
103.16058613424
103.160586141326
103.160586149665
103.160586159327
103.160586170241
103.160586182246
103.160586194965
103.160586207756
103.160586219834
103.16058623018
103.160586237747
103.160586241749
103.160586242084
103.16058621608
103.160586216414
103.160586213664
103.160586208003
103.16058619981
103.160586190017
103.160586179394
103.160586168655
103.160586158381
103.160586148893
103.160586140439
103.160586133075
103.160586126789
103.160586121507
103.160586117141
103.16058611359
103.160586110724
103.160586108439
103.160586106664
103.160586105296
103.160586104277
103.16058610355
103.160586103069
103.160586102822
103.160586102764
103.160586102895
103.160586103215
103.160586103739
103.160586104481
103.16058610547
103.160586106751
103.160586108381
103.160586110404
103.160586112921
103.160586116035
103.160586119819
103.160586124417
103.160586129918
103.160586136437
103.160586144033
103.16058615272
103.160586162427
103.160586172948
103.16058618392
103.16058619479
103.160586204816
103.160586213184
103.160586218975
103.160586221798
103.160586221522
103.160586196376
103.160586197366
103.160586195678
103.160586191632
103.160586185229
103.160586177299
103.160586168422
103.160586159298
103.160586150407
103.160586142098
103.160586134574
103.160586127953
103.160586122234
103.160586117388
103.160586113343
103.160586110011
103.160586107304
103.16058610515
103.160586103433
103.160586102109
103.160586101119
103.160586100406
103.160586099941
103.160586099679
103.160586099621
103.160586099752
103.160586100072
103.160586100581
103.160586101309
103.160586102269
103.160586103506
103.160586105078
103.160586107013
103.160586109414
103.160586112353
103.160586115904
103.160586120182
103.160586125246
103.160586131184
103.160586138023
103.160586145765
103.160586154307
103.160586163431
103.160586172788
103.160586181883
103.160586190017
103.160586196609
103.1605862008
103.160586202575
103.160586201688
103.16058617724
103.160586178885
103.160586178215
103.160586175669
103.160586170881
103.160586164668
103.160586157421
103.160586149796
103.160586142214
103.160586135011
103.160586128419
103.16058612254
103.160586117403
103.160586112994
103.160586109283
103.160586106213
103.160586103695
103.160586101643
103.160586100028
103.160586098777
103.160586097816
103.160586097132
103.160586096667
103.160586096419
103.160586096361
103.160586096492
103.160586096797
103.160586097278
103.160586097976
103.160586098908
103.160586100101
103.160586101585
103.160586103433
103.160586105703
103.160586108439
103.160586111742
103.160586115657
103.16058612027
103.160586125625
103.160586131722
103.160586138547
103.160586145954
103.160586153754
103.160586161612
103.160586169062
103.160586175494
103.160586180456
103.160586183163
103.160586183934
103.160586182421
103.16058615857
103.160586160899
103.160586161219
103.160586160084
103.160586156795
103.160586152168
103.16058614642
103.160586140191
103.160586133847
103.16058612772
103.160586122016
103.16058611685
103.160586112295
103.160586108366
103.160586105005
103.160586102196
103.160586099868
103.160586097976
103.160586096463
103.160586095284
103.160586094367
103.160586093712
103.160586093276
103.160586093043
103.160586092985
103.160586093101
103.160586093378
103.160586093858
103.160586094527
103.160586095401
103.160586096536
103.160586097947
103.160586099664
103.160586101774
103.160586104321
103.160586107333
103.160586110898
103.160586115046
103.160586119804
103.160586125174
103.160586131082
103.160586137426
103.160586143989
103.160586150421
103.160586156388
103.160586161219
103.160586164697
103.160586165977
103.160586165788
103.160586163605
103.160586140235
103.160586143305
103.160586144601
103.160586144833
103.160586142956
103.160586139798
103.160586135447
103.160586130529
103.160586125334
103.160586120226
103.16058611538
103.160586110942
103.160586106969
103.160586103491
103.160586100494
103.160586097962
103.160586095852
103.16058609412
103.160586092723
103.160586091617
103.160586090773
103.160586090147
103.16058608974
103.160586089507
103.160586089449
103.160586089565
103.160586089827
103.160586090278
103.160586090919
103.160586091748
103.160586092796
103.16058609412
103.160586095721
103.160586097656
103.16058609997
103.160586102706
103.160586105892
103.160586109574
103.16058611375
103.160586118393
103.160586123442
103.160586128739
103.160586134138
103.16058613926
103.160586143815
103.160586147191
103.160586149257
103.160586149199
103.160586148064
103.160586145154
103.160586122176
103.16058612609
103.160586128361
103.160586129932
103.160586129379
103.160586127589
103.160586124533
103.160586120837
103.160586116748
103.160586112601
103.160586108585
103.160586104845
103.160586101425
103.160586098413
103.160586095793
103.160586093552
103.160586091661
103.160586090104
103.160586088823
103.160586087819
103.160586087033
103.160586086466
103.160586086073
103.160586085869
103.160586085811
103.160586085913
103.160586086175
103.160586086582
103.160586087179
103.16058608795
103.160586088925
103.160586090133
103.160586091602
103.160586093363
103.160586095444
103.160586097874
103.160586100697
103.160586103899
103.160586107493
103.160586111437
103.160586115657
103.160586119993
103.160586124272
103.160586128171
103.160586131431
103.160586133425
103.160586134167
103.160586132784
103.160586130703
103.160586126978
103.160586104292
103.160586109167
103.160586112455
103.160586115337
103.160586116064
103.160586115569
103.160586113721
103.16058611116
103.16058610809
103.160586104874
103.160586101643
103.160586098558
103.160586095721
103.16058609316
103.160586090904
103.160586088954
103.160586087295
103.160586085898
103.160586084763
103.160586083861
103.160586083148
103.160586082638
103.160586082275
103.160586082086
103.160586082042
103.160586082129
103.160586082362
103.160586082755
103.160586083293
103.160586084006
103.160586084909
103.160586086
103.160586087324
103.160586088896
103.160586090729
103.160586092868
103.160586095313
103.160586098049
103.160586101076
103.160586104335
103.160586107755
103.16058611116
103.160586114405
103.16058611717
103.160586119207
103.16058611992
103.160586119397
103.160586116719
103.160586113634
103.160586108977
103.160586086538
103.160586092519
103.16058609687
103.16058610109
103.16058610304
103.160586103753
103.160586103026
103.160586101527
103.160586099431
103.160586097059
103.160586094586
103.16058609217
103.160586089871
103.160586087761
103.160586085869
103.16058608421
103.160586082784
103.160586081576
103.160586080572
103.160586079772
103.160586079146
103.16058607868
103.16058607836
103.160586078186
103.160586078142
103.160586078229
103.160586078448
103.160586078797
103.160586079292
103.160586079932
103.160586080747
103.160586081722
103.1605860829
103.160586084283
103.160586085884
103.160586087717