/*--------------------------------*- C++ -*----------------------------------*\
  =========                 |
  \\      /  F ield         | OpenFOAM: The Open Source CFD Toolbox
   \\    /   O peration     | Website:  https://openfoam.org
    \\  /    A nd           | Version:  10
     \\/     M anipulation  |
\*---------------------------------------------------------------------------*/
FoamFile
{
    format      ascii;
    class       surfaceScalarField;
    location    "8.8";
    object      phi;
}
// * * * * * * * * * * * * * * * * * * * * * * * * * * * * * * * * * * * * * //

dimensions      [1 0 -1 0 0 0 0];

internalField   nonuniform List<scalar> 
4900
(
-5.03899354625194e-12
5.05645537723449e-12
-7.82462817996914e-12
2.81276611124449e-12
-7.83445574162021e-12
3.87744351096269e-14
-6.37823916727106e-12
-1.42796147944135e-12
-4.68838768004218e-12
-1.66211496560788e-12
-3.28064340610108e-12
-1.38017624271428e-12
-2.24993923474181e-12
-1.00320210384919e-12
-1.53456812528871e-12
-6.87976366225577e-13
-1.04917590351486e-12
-4.58188665442742e-13
-7.21871601659033e-13
-3.00371060500639e-13
-5.00656751618541e-13
-1.94609750918172e-13
-3.49723789921386e-13
-1.24691412828003e-13
-2.45157560276791e-13
-7.87021197657764e-14
-1.71215590273378e-13
-4.84550640825697e-14
-1.17675192988092e-13
-2.84184213568634e-14
-7.79275812809072e-14
-1.49726821518462e-14
-4.7696530164369e-14
-5.78000118897075e-15
-2.4177011845723e-14
6.3133459172317e-16
-5.48188007877137e-15
5.18108154849124e-15
9.6723398379078e-15
8.47165666749903e-15
2.22098024520965e-14
1.08626949339507e-14
3.28135007862036e-14
1.25937148065489e-14
4.20255068137007e-14
1.38058786132307e-14
5.0279054078628e-14
1.4606105371609e-14
5.79665715463173e-14
1.50344685408769e-14
6.54461869154191e-14
1.51239058986087e-14
7.30805755129715e-14
1.48692018309528e-14
8.12508225120388e-14
1.42503698407167e-14
9.03990981416426e-14
1.32056384382534e-14
1.0105568495216e-13
1.1646435100119e-14
1.13904851227382e-13
9.41823957311088e-15
1.29858467954493e-13
6.29375047753172e-15
1.50201525930543e-13
1.90018652797264e-15
1.76817459547841e-13
-4.35987285157014e-15
2.12514909911209e-13
-1.34115473159622e-14
2.61599095905501e-13
-2.67511623418376e-14
3.30684111221813e-13
-4.66893800804029e-14
4.29993823754811e-13
-7.68384576725818e-14
5.75228879256379e-13
-1.22681227037386e-13
7.90288683812652e-13
-1.92424090763199e-13
1.11097916611665e-12
-2.97983242197883e-13
1.58947967710771e-12
-4.55740990194609e-13
2.2985607852359e-12
-6.86289805528743e-13
3.3261276619875e-12
-1.00474284229342e-12
4.73914123550509e-12
-1.39008536450623e-12
6.44874089173836e-12
-1.68635398902049e-12
7.93391851435479e-12
-1.46122630391219e-12
7.92613197357778e-12
3.29357548535877e-14
5.08205337912895e-12
2.86974569055769e-12
5.10014881449339e-12
-8.35114115954433e-12
1.34322502852027e-11
-1.41676930059443e-11
8.66512591109977e-12
-1.46773951913831e-11
5.8613598620065e-13
-1.2285277694671e-11
-3.78326199391867e-12
-9.23907096981102e-12
-4.67217982602359e-12
-6.60526688930746e-12
-3.97813846440269e-12
-4.62515998762606e-12
-2.94765052815725e-12
-3.22471548392687e-12
-2.05298450010453e-12
-2.25739592562307e-12
-1.39037588357494e-12
-1.59313480587452e-12
-9.29883156020979e-13
-1.13458214710216e-12
-6.18850925301593e-13
-8.14037264973416e-13
-4.11394537474218e-13
-5.85845561525994e-13
-2.73530551815752e-13
-4.19781154896704e-13
-1.8162913279017e-13
-2.96008763757957e-13
-1.19755079465629e-13
-2.0153183437519e-13
-7.74445464067803e-14
-1.27789432968929e-13
-4.79183220348179e-14
-6.90339754564314e-14
-2.68914726416904e-14
-2.13319011053708e-14
-1.16279923122008e-14
1.8103147882627e-14
-3.80027375994378e-16
5.13110765006386e-14
7.96013360424182e-15
7.98519249870854e-14
1.41086467951665e-14
1.04977358646457e-13
1.85151702745791e-14
1.27733689885114e-13
2.14895653953619e-14
1.49054321621312e-13
2.31849574994476e-14
1.69817589018183e-13
2.36868622736325e-14
1.90895813747566e-13
2.29951267440972e-14
2.13220789577338e-13
2.10287341547589e-14
2.37835361346754e-13
1.76139484811714e-14
2.65972845784864e-13
1.24708217077007e-14
2.99185259091452e-13
5.12646642825082e-15
3.39495083840566e-13
-5.11747664093412e-15
3.89667381950309e-13
-1.93750518759841e-14
4.53632226773424e-13
-3.94080621337765e-14
5.37145332058451e-13
-6.796682901722e-14
6.48804147864601e-13
-1.09389531221531e-13
8.01617381794927e-13
-1.70399670270436e-13
1.01543329769121e-12
-2.61452996630105e-13
1.32045514747893e-12
-3.98394734126681e-13
1.76235897665356e-12
-6.04912336083297e-13
2.40894823245083e-12
-9.15061817986391e-13
3.35812051387866e-12
-1.37532769577728e-12
4.74185502084977e-12
-2.04038221244733e-12
6.711777142372e-12
-2.94494820820429e-12
9.35215665435292e-12
-4.00055120971748e-12
1.24330385003017e-11
-4.73680212795929e-12
1.48790111080514e-11
-3.87571351034825e-12
1.43767646521212e-11
5.6809359911258e-13
8.45692213795012e-12
8.82194296277601e-12
1.35784555380437e-11
-7.52918575070629e-12
2.09884695841434e-11
-1.3952217606295e-11
1.5126154252479e-11
-1.49954119586172e-11
1.66878110328957e-12
-1.295085704346e-11
-5.78934107993247e-12
-1.00281197312701e-11
-7.5572816935212e-12
-7.3837044543139e-12
-6.5854050305916e-12
-5.32807886882523e-12
-4.96647508797557e-12
-3.8326249587235e-12
-3.51198481780103e-12
-2.77061837690145e-12
-2.41632043425061e-12
-2.02009008059302e-12
-1.6447859232131e-12
-1.48584513706623e-12
-1.11793756942388e-12
-1.10019132649746e-12
-7.62371970996571e-13
-8.16564714769167e-13
-5.22960962788051e-13
-6.03553649216597e-13
-3.60912490188468e-13
-4.40079295083637e-13
-2.49949076781918e-13
-3.11978025537228e-13
-1.72688368498945e-13
-2.09640339930088e-13
-1.17791682977202e-13
-1.26413979410907e-13
-7.80172892972172e-14
-5.76063082193222e-14
-4.86673806445833e-14
2.18898375503016e-16
-2.67400296906181e-14
4.96521948612667e-14
-1.02809307838358e-14
9.27256272437894e-14
1.98325815331191e-15
1.31104389374848e-13
1.0867953452006e-14
1.66213958464953e-13
1.69213164812056e-14
1.99332422308898e-13
2.04430962051321e-14
2.31674630962636e-13
2.15795794911272e-14
2.64446612563543e-13
2.03391565607707e-14
2.98924689577803e-13
1.65686892274624e-14
3.36519671225066e-13
9.95865018011425e-15
3.78881764417309e-13
-1.00257110927316e-17
4.28021599615304e-13
-1.41716378195242e-14
4.86511900385228e-13
-3.37862850677391e-14
5.57751787161337e-13
-6.07936288408317e-14
6.46427156333974e-13
-9.82413503519259e-14
7.59191492760277e-13
-1.50846119462592e-13
9.0567134590855e-13
-2.25920439700811e-13
1.10004664762355e-12
-3.34741015993851e-13
1.36341381302671e-12
-4.94684936916259e-13
1.72721527204357e-12
-7.31946607418246e-13
2.23809855019653e-12
-1.08542800921651e-12
2.96399584003187e-12
-1.61047833417139e-12
4.00085618767136e-12
-2.38160525866451e-12
5.4728353553828e-12
-3.48168276063434e-12
7.51215097892222e-12
-4.95345775648949e-12
1.01584426036149e-11
-6.6157638097183e-12
1.31142705284756e-11
-7.66091535138528e-12
1.52173807361944e-11
-5.94589595571846e-12
1.41944338592587e-11
1.62535702489783e-12
7.6715350918669e-12
1.5378064996501e-11
2.12715132292736e-11
-4.95701473543289e-12
2.59742367141354e-11
-1.02381930620757e-11
2.04470254703508e-11
-1.16556745249949e-11
3.12715148634088e-12
-1.05838402416398e-11
-6.82142155896259e-12
-8.59416453419122e-12
-9.50823633159225e-12
-6.63111904282204e-12
-8.51041294545344e-12
-5.00996692063919e-12
-6.55010233703088e-12
-3.76858889142273e-12
-4.7163048855748e-12
-2.84368090192663e-12
-3.30463853360789e-12
-2.15901331303243e-12
-2.2933428772489e-12
-1.64923614854133e-12
-1.59208858890432e-12
-1.26518151898655e-12
-1.11128278813088e-12
-9.71401502127551e-13
-7.82068300079517e-13
-7.42913158650145e-13
-5.55182805994417e-13
-5.62186338974775e-13
-3.96889376903787e-13
-4.16895432692019e-13
-2.84599455895628e-13
-2.98281962097349e-13
-2.03403215655023e-13
-2.00018046206419e-13
-1.43629559891938e-13
-1.17441144408229e-13
-9.8912553921727e-14
-4.70175239589793e-14
-6.51235718543481e-14
1.40073211849842e-14
-3.95281232137411e-14
6.7858539519844e-14
-2.03260855846665e-14
1.16388470917245e-13
-6.32861479059887e-15
1.61216619458388e-13
3.24379121541143e-15
2.03811786913767e-13
8.84010365512478e-15
2.4557120945729e-13
1.06763353899285e-14
2.87896754404626e-13
8.75547723401598e-15
3.32246208367352e-13
2.86689068346213e-15
3.80218629838972e-13
-7.44041636658676e-15
4.33654924380672e-13
-2.2929268934248e-14
4.94753043248384e-13
-4.47901301874426e-14
5.66243589261456e-13
-7.48162395154915e-14
6.51625061927756e-13
-1.15713782890412e-13
7.55539131825422e-13
-1.71673418863415e-13
8.843018174838e-13
-2.49085078289163e-13
1.04666292762917e-12
-3.57694226870425e-13
1.25496068097162e-12
-5.12367491171585e-13
1.52673354243961e-12
-7.35682792749443e-13
1.88701991184882e-12
-1.06134020322418e-12
2.37138803148618e-12
-1.53877551945805e-12
3.02929847982772e-12
-2.23723764170217e-12
3.92683383656873e-12
-3.24786152132302e-12
5.14209387601831e-12
-4.66553427839411e-12
6.74292459818461e-12
-6.52271228589436e-12
8.70083119041999e-12
-8.54177566502633e-12
1.07131784287839e-11
-9.64067242674967e-12
1.18357251092361e-11
-7.03455481576997e-12
1.04513122500906e-11
3.04503005685739e-12
5.10042665968673e-12
2.07627909058687e-11
2.6393671743664e-11
-2.09452117916691e-12
2.80985593200432e-11
-5.50095456646683e-12
2.38939895044961e-11
-7.09002759811558e-12
4.75749915056153e-12
-7.09871355847726e-12
-6.77274390734621e-12
-6.27397269034461e-12
-1.02941845715681e-11
-5.22087114724831e-12
-9.52557917416937e-12
-4.21917999711901e-12
-7.51451189333612e-12
-3.36829848971951e-12
-5.53046886529773e-12
-2.67778368705802e-12
-3.95896021890133e-12
-2.12783822222749e-12
-2.80760024758133e-12
-1.69173704436011e-12
-1.99298924533562e-12
-1.34504145486066e-12
-1.42325070678797e-12
-1.06762210106853e-12
-1.02521384816137e-12
-8.43711474014714e-13
-7.45253785378617e-13
-6.6119459716057e-13
-5.45976997349931e-13
-5.10844473268343e-13
-4.01906637013827e-13
-3.85620631831779e-13
-2.95943614266836e-13
-2.80131640097169e-13
-2.16768085706273e-13
-1.90182413427611e-13
-1.56815912283958e-13
-1.12458859006944e-13
-1.11079392449246e-13
-4.42915949573084e-14
-7.61782486282797e-14
1.65458915810625e-14
-4.98708993279826e-14
7.19396316834938e-14
-3.06285500981387e-14
1.2357437334121e-13
-1.74720123772633e-14
1.72984301265058e-13
-9.80190140907683e-15
2.21640510026431e-13
-7.34151837130851e-15
2.71014234958082e-13
-1.00890098770808e-14
3.2263080504875e-13
-1.83096406562861e-14
3.78152591867589e-13
-3.2593146433344e-14
4.39454134837961e-13
-5.391505739184e-14
5.08726509711339e-13
-8.3782551472668e-14
5.88614176383389e-13
-1.24442010818709e-13
6.82400442312245e-13
-1.79237943645354e-13
7.94241091173546e-13
-2.53232267904029e-13
9.29509537814519e-13
-3.54031677923327e-13
1.09521181105188e-12
-4.93013858231594e-13
1.30056062354102e-12
-6.87251753322505e-13
1.55766252674765e-12
-9.62218765212419e-13
1.88232399961925e-12
-1.35531649796991e-12
2.29476724649736e-12
-1.9204003820055e-12
2.8196600702914e-12
-2.73117041668571e-12
3.48422560657248e-12
-3.8813219241078e-12
4.3094578136954e-12
-5.45951142271962e-12
5.28876414739716e-12
-7.47057798182249e-12
6.32949292261963e-12
-9.55073681673275e-12
7.16284103130356e-12
-1.04415560251731e-11
7.1897356460733e-12
-7.02768134599587e-12
5.64054474926756e-12
4.62927547177563e-12
2.20537590029205e-12
2.42313969326349e-11
2.86201368036708e-11
2.24407224016069e-13
2.79045695924071e-11
-1.32440818385731e-12
2.54835267154707e-11
-2.89359700471546e-12
6.36782754013495e-12
-3.76220803595894e-12
-5.86442406697386e-12
-3.95079465595567e-12
-1.00672412222903e-11
-3.72680391855017e-12
-9.71222202014103e-12
-3.31336240834049e-12
-7.89137874407969e-12
-2.84915201643907e-12
-5.95874676960583e-12
-2.40242432352991e-12
-4.37032254586923e-12
-2.00183978928034e-12
-3.17333942444059e-12
-1.65524227219912e-12
-2.3052271405604e-12
-1.36097521269472e-12
-1.68361694670837e-12
-1.11340775578327e-12
-1.23931484661201e-12
-9.05762248000119e-13
-9.19844927975383e-13
-7.31406925869633e-13
-6.87666620753151e-13
-5.84407329803003e-13
-5.16606450682979e-13
-4.59678441736076e-13
-3.88713726782508e-13
-3.52981626621074e-13
-2.91822155813567e-13
-2.60797067176883e-13
-2.17647458100241e-13
-1.80203348634929e-13
-1.60584792467155e-13
-1.08750221210317e-13
-1.1678150275176e-13
-4.43415758034379e-14
-8.36439993324892e-14
1.4843354257744e-14
-5.93670201021956e-14
7.04524390857862e-14
-4.28011593782026e-14
1.24004161108795e-13
-3.32175489551965e-14
1.76964174295783e-13
-3.02888137537235e-14
2.30789272150596e-13
-3.40044880035355e-14
2.86996551075777e-13
-4.46923583220541e-14
3.47202239497843e-13
-6.30416033643978e-14
4.13217387862129e-13
-9.02235191172809e-14
4.87106590346823e-13
-1.27999170591958e-13
5.71283497035847e-13
-1.78963786125825e-13
6.6863992579813e-13
-2.46939312158366e-13
7.82654482823666e-13
-3.37573161627664e-13
9.17523800993226e-13
-4.59190137383664e-13
1.07828197145388e-12
-6.24003579212348e-13
1.27082124409529e-12
-8.49943939477439e-13
1.50173766919339e-12
-1.16318939954656e-12
1.77779999971295e-12
-1.60131440152474e-12
2.10465241000359e-12
-2.21705225350749e-12
2.48403140661934e-12
-3.08019984321548e-12
2.90823965753341e-12
-4.27502424905595e-12
3.349013976102e-12
-5.8696173292784e-12
3.73943458823525e-12
-7.83013778831474e-12
3.94485733392454e-12
-9.72498063239684e-12
3.75092061549821e-12
-1.02157680657747e-11
2.90019718435507e-12
-6.14384031778871e-12
1.37030499338552e-12
6.19350414123159e-12
-1.66915388396192e-13
2.58011537702786e-11
2.84735656254912e-11
1.70153119999799e-12
2.62330595609673e-11
1.5845776492813e-12
2.56399017674827e-11
1.80214953484934e-13
7.81147751566371e-12
-1.19709164610431e-12
-4.44935008429231e-12
-2.07278430904368e-12
-9.15521472786056e-12
-2.44959530788367e-12
-9.30018140126871e-12
-2.48672420036364e-12
-7.81986816873816e-12
-2.33438297412731e-12
-6.07739228827925e-12
-2.09500879150963e-12
-4.57658477668355e-12
-1.82906547315773e-12
-3.40668809057994e-12
-1.56878732189927e-12
-2.5333808265427e-12
-1.32944179881988e-12
-1.89127476679191e-12
-1.11665891846132e-12
-1.4208197136092e-12
-9.30954458434101e-13
-1.07465862503707e-12
-7.70356023374852e-13
-8.17739483460931e-13
-6.31868783821839e-13
-6.24911905554778e-13
-5.12264363537293e-13
-4.78456788091748e-13
-4.08462814974115e-13
-3.66061174685904e-13
-3.17675685697559e-13
-2.7914601482306e-13
-2.3744772932172e-13
-2.11774963738562e-13
-1.65625662832474e-13
-1.59791899177138e-13
-1.00315612902144e-13
-1.20345301555291e-13
-3.9818350718104e-14
-9.14349907444994e-14
1.7411474525444e-14
-7.17594661252905e-14
7.28267993062651e-14
-6.04974044763466e-14
1.27830507339586e-13
-5.72736494042675e-14
1.83813330784249e-13
-6.20662729559937e-14
2.42221637960646e-13
-7.52598646161168e-14
3.04581825930927e-13
-9.76245709080162e-14
3.72566257516617e-13
-1.30478290961254e-13
4.48041941242524e-13
-1.75777651118093e-13
5.33125827912473e-13
-2.36367113555581e-13
6.30240102613932e-13
-3.1637326746125e-13
7.42122958331026e-13
-4.2175951559297e-13
8.71796253591957e-13
-5.61132523773145e-13
1.02242952078107e-12
-7.46852943876503e-13
1.19694611002863e-12
-9.96603293391535e-13
1.39725168199689e-12
-1.33554417816248e-12
1.62276875077333e-12
-1.79876620069403e-12
1.86777593428544e-12
-2.43386092016429e-12
2.11690649135496e-12
-3.30098336260334e-12
2.33772268827194e-12
-4.46733617341909e-12
2.46944540542844e-12
-5.97267467771136e-12
2.40964060755101e-12
-7.74148659416255e-12
2.00992723662615e-12
-9.29613247426791e-12
1.11772378052995e-12
-9.29381157478737e-12
-2.57592724526006e-13
-4.73757644217459e-12
-1.62815863184269e-12
7.59609635142931e-12
-1.70093928040488e-12
2.59041102676176e-11
2.67910641859016e-11
2.39774598835744e-12
2.38641945843543e-11
3.16855497529928e-12
2.49062267352163e-11
2.0123795135157e-12
9.00430715245472e-12
4.60138349569646e-13
-2.86203362511404e-12
-7.62982115036313e-13
-7.89849638495425e-12
-1.48903244857058e-12
-8.54168958265438e-12
-1.81550473877761e-12
-7.46184193080206e-12
-1.88057149611974e-12
-5.98147639071216e-12
-1.79684420347695e-12
-4.63004716469243e-12
-1.63928227876537e-12
-3.53448952131583e-12
-1.45344588761465e-12
-2.68990683195035e-12
-1.26489992073416e-12
-2.05092312998032e-12
-1.08674305544004e-12
-1.57046350213264e-12
-9.2469233021621e-13
-1.20855939573369e-12
-7.80318727752548e-13
-9.34305298009459e-13
-6.53010880493614e-13
-7.24735408058767e-13
-5.41132200765098e-13
-5.63153682745572e-13
-4.42666333196668e-13
-4.37627067687473e-13
-3.555353952356e-13
-3.39636270839243e-13
-2.77765958803878e-13
-2.63141183691822e-13
-2.07524591422689e-13
-2.03844636457507e-13
-1.43151300395271e-13
-1.58722165578192e-13
-8.31133574082557e-14
-1.25646753063276e-13
-2.59886585877401e-14
-1.03207134128294e-13
2.95722244614395e-14
-9.05104294253804e-14
8.48754441446311e-14
-8.71390928050435e-14
1.4122595281284e-13
-9.30716792497178e-14
1.99958928497505e-13
-1.08723660713183e-13
2.62480177204887e-13
-1.34936146881618e-13
3.30290591824546e-13
-1.73124554773627e-13
4.05029766953118e-13
-2.25382848168865e-13
4.88483263570167e-13
-2.94702825170557e-13
5.8258998281854e-13
-3.85363412378257e-13
6.8937441974589e-13
-5.03412651799482e-13
8.10793134498738e-13
-6.57389003132519e-13
9.48401563316302e-13
-8.59250193782159e-13
1.10272710427232e-12
-1.12565013708852e-12
1.27209659247741e-12
-1.47954748021961e-12
1.4506899382973e-12
-1.95188589736544e-12
1.62522853432283e-12
-2.58279807850014e-12
1.76989493862072e-12
-3.41990481743774e-12
1.83864223951848e-12
-4.51018659781238e-12
1.7557101897363e-12
-5.86369345390388e-12
1.40762656295022e-12
-7.36719022352213e-12
6.56618713475545e-13
-8.51865830757551e-12
-5.89896943999609e-13
-8.0202709874452e-12
-2.15127886525017e-12
-3.14806300112927e-12
-3.28038606985218e-12
8.75433416752246e-12
-2.44362282951816e-12
2.50945894365665e-11
2.4363906299855e-11
2.53050012703992e-12
2.13601170674964e-11
3.71475317808331e-12
2.37550786563104e-11
2.83268350159697e-12
9.91852541871831e-12
1.34647318763767e-12
-1.34520384382489e-12
4.12925084585748e-14
-6.56411422805929e-12
-8.28130196304852e-13
-7.64419772828773e-12
-1.3058362800085e-12
-6.95693886640895e-12
-1.50339395544804e-12
-5.75740557446175e-12
-1.52599035065366e-12
-4.58149483896553e-12
-1.4495847396221e-12
-3.58541318874185e-12
-1.32400667968484e-12
-2.79042100700899e-12
-1.17948834561433e-12
-2.17075946940363e-12
-1.03326177029349e-12
-1.69236360298266e-12
-8.94314527239756e-13
-1.32351644507744e-12
-7.66686021365032e-13
-1.03826212832854e-12
-6.51575146778055e-13
-8.1647653341446e-13
-5.48639708250784e-13
-6.4300264921539e-13
-4.56781168783222e-13
-5.06664009522962e-13
-3.74565450824525e-13
-3.9927467732542e-13
-3.00476277352529e-13
-3.14876534130497e-13
-2.33014040676586e-13
-2.49155721668099e-13
-1.70751349217816e-13
-1.99014864501835e-13
-1.12337096040234e-13
-1.62251809632302e-13
-5.64881576039334e-14
-1.37387259149336e-13
-1.97895665084785e-15
-1.23471958419708e-13
5.23922049554898e-14
-1.20066410223598e-13
1.07820052410358e-13
-1.27142234277113e-13
1.65518402476736e-13
-1.45135565105067e-13
2.26755041626417e-13
-1.74942662642402e-13
2.92850756268008e-13
-2.18032279406413e-13
3.65199640957055e-13
-2.7657236664536e-13
4.45264652222591e-13
-3.53623821173428e-13
5.34521222072528e-13
-4.53477409688308e-13
6.34343751909624e-13
-5.82080360965565e-13
7.45765781460409e-13
-7.47628952461535e-13
8.69040553071352e-13
-9.61299514679606e-13
1.00288142660924e-12
-1.23820555818355e-12
1.14312488311624e-12
-1.59842628397104e-12
1.28063398785196e-12
-2.06793273089619e-12
1.39794757389317e-12
-2.67853362551745e-12
1.46447462833486e-12
-3.4647237959531e-12
1.42974450504379e-12
-4.4536130890992e-12
1.21676315465829e-12
-5.62873872223734e-12
7.19093487585208e-13
-6.84741546332503e-12
-1.75116303911422e-13
-7.60213964767713e-12
-1.50611823748382e-12
-6.66647731013223e-12
-3.00680382450807e-12
-1.62358422452522e-12
-3.86694108180202e-12
9.63911106838865e-12
-2.60560419226555e-12
2.38561475969202e-11
2.17716950572893e-11
2.33312911154516e-12
1.90502578345699e-11
3.6034637080127e-12
2.25130870478126e-11
2.97947512406986e-12
1.05697104924129e-11
1.69333693725512e-12
-3.33104329877272e-14
4.72719898154066e-13
-5.31906205500565e-12
-4.01745582143376e-13
-6.74636575760631e-12
-9.3208290949457e-13
-6.40406046761998e-12
-1.19795341859582e-12
-5.4696371472358e-12
-1.28732112570261e-12
-4.47074699678891e-12
-1.26873362506495e-12
-3.58305756946253e-12
-1.1901691478954e-12
-2.84842643844396e-12
-1.08250588770917e-12
-2.25821510711258e-12
-9.64576619371822e-13
-1.79041296931449e-12
-8.47113650380748e-13
-1.4214110198497e-12
-7.35731501792582e-13
-1.13037229381345e-12
-6.32922596321804e-13
-9.00295844678275e-13
-5.39347917744178e-13
-7.17853272858831e-13
-4.54667451126748e-13
-5.72869584106222e-13
-3.78020993126459e-13
-4.57676362951505e-13
-3.0830413096208e-13
-3.66560042251015e-13
-2.44333227347313e-13
-2.95283984716991e-13
-1.84910856586289e-13
-2.40766010202943e-13
-1.28869883090895e-13
-2.00772700090402e-13
-7.50750610408818e-14
-1.73794724493058e-13
-2.2425219020692e-14
-1.58848733067838e-13
3.01648326491463e-14
-1.55480666829173e-13
8.37765322481415e-14
-1.63659225715334e-13
1.39498353307717e-13
-1.83828861901137e-13
1.98447750938641e-13
-2.16915993315402e-13
2.61766134444387e-13
-2.64413675901766e-13
3.30613560976301e-13
-3.28509809793405e-13
4.06140057107438e-13
-4.12254184685233e-13
4.89398384323823e-13
-5.19842266624314e-13
5.81197481700214e-13
-6.56975115614097e-13
6.81805017739943e-13
-8.31308525699701e-13
7.90468057610435e-13
-1.0529963379688e-12
9.04596072437317e-13
-1.33531454714606e-12
1.01845135918601e-12
-1.69519307978657e-12
1.12112193158234e-12
-2.15342873849329e-12
1.19352768251939e-12
-2.73366300512296e-12
1.20437781089354e-12
-3.45818489643691e-12
1.10502107088671e-12
-4.33675251273354e-12
8.25855538514969e-13
-5.33196446256326e-12
2.77652784206714e-13
-6.28150468267375e-12
-6.19647595174705e-13
-6.68697501945421e-12
-1.86485932569878e-12
-5.40299200940034e-12
-3.16576433271608e-12
-3.03519213558399e-13
-3.77032006073593e-12
1.02636058441744e-11
-2.42040071823113e-12
2.25245610241585e-11
1.93618179871797e-11
1.98782468388953e-12
1.70814822949963e-11
3.1623099434448e-12
2.13609208818064e-11
2.75647592381396e-12
1.09964841104105e-11
1.71825717071307e-12
1.02461098066421e-12
6.63380846124053e-13
-4.24561232431344e-12
-1.38944309919933e-13
-5.92640610346832e-12
-6.60972468492413e-13
-5.86513009889149e-12
-9.52005977992317e-13
-5.16227143833281e-12
-1.07946941329609e-12
-4.3274095976401e-12
-1.10052284227109e-12
-3.54651761437748e-12
-1.05785100481549e-12
-2.8759543674409e-12
-9.80481291772893e-13
-2.32075675426802e-12
-8.87132189934167e-13
-1.86923194674647e-12
-7.89178325028269e-13
-1.50512017951976e-12
-6.93101912222304e-13
-1.21247747977153e-12
-6.02258303287593e-13
-9.77430188443288e-13
-5.18060851162597e-13
-7.88589579503988e-13
-4.40779920371906e-13
-6.36921937481396e-13
-3.70035044643116e-13
-5.15408458809111e-13
-3.05092723232196e-13
-4.18687389704757e-13
-2.4505621310445e-13
-3.42684499226597e-13
-1.88954860615043e-13
-2.84392080320407e-13
-1.35791521152179e-13
-2.41602230466398e-13
-8.45847478369891e-14
-2.1279170416228e-13
-3.43523297715926e-14
-1.96978056650941e-13
1.58681686944577e-14
-1.93688636936197e-13
6.70419151623269e-14
-2.02895760049982e-13
1.2012935333314e-13
-2.25040881166273e-13
1.76104373076765e-13
-2.61063749932697e-13
2.35930848111777e-13
-3.12448956948779e-13
3.00547482602544e-13
-3.81359848145433e-13
3.70811108036305e-13
-4.70764555657796e-13
4.47409221642604e-13
-5.84689465261324e-13
5.30663630197168e-13
-7.28469827654628e-13
6.20235730550877e-13
-9.09100615933622e-13
7.14619721023629e-13
-1.13556801377818e-12
8.10364851018027e-13
-1.41920261813989e-12
9.00855398968347e-13
-1.77376818754696e-12
9.74537019122749e-13
-2.21512306231536e-12
1.01244118421736e-12
-2.75949648120893e-12
9.85138471359624e-13
-3.41872181568895e-12
8.49311538089842e-13
-4.18867912602387e-12
5.46877903690589e-13
-5.01721447295949e-12
9.36984258160456e-15
-5.73162427518845e-12
-8.12693465076026e-13
-5.8524400272937e-12
-1.88856132364417e-12
-4.31432951135882e-12
-2.93845804927236e-12
7.59929005710322e-13
-3.32505323869613e-12
1.06643729879697e-11
-2.07435070079977e-12
2.12867310813726e-11
1.72943733158677e-11
1.61091944314027e-12
1.54851955867559e-11
2.6147912108988e-12
2.03733563915648e-11
2.37863287206317e-12
1.12476211252323e-11
1.58153994969129e-12
1.83566326697682e-12
7.15099794641165e-13
-3.36614179853864e-12
1.81499696175682e-14
-5.21721778120697e-12
-4.63077111784588e-13
-5.3722917516458e-12
-7.52839786141631e-13
-4.86138832975919e-12
-8.98887929255701e-13
-4.17063745274435e-12
-9.46099066884937e-13
-3.4889208022423e-12
-9.30421770482497e-13
-2.88154882996597e-12
-8.77705937080048e-13
-2.36367338521792e-12
-8.05495555562288e-13
-1.93191370026974e-12
-7.2504213722254e-13
-1.57630744503299e-12
-6.43185188066958e-13
-1.28532116020771e-12
-5.63793226587447e-13
-1.04805287215625e-12
-4.88808900495003e-13
-8.55036098791956e-13
-4.18976355447951e-13
-6.98434915113862e-13
-3.54308328364878e-13
-5.71959068466315e-13
-2.94401080282041e-13
-4.7066296621114e-13
-2.38606643906616e-13
-3.90715287564985e-13
-1.86164005765526e-13
-3.29221799127803e-13
-1.36243861279772e-13
-2.84041950510619e-13
-8.80093678078376e-14
-2.5366195356303e-13
-4.0603068209891e-14
-2.37119509462997e-13
6.82035258690605e-15
-2.33931297966257e-13
5.5107261030322e-14
-2.44071594292701e-13
1.05098165340081e-13
-2.67977637228044e-13
1.57618049452868e-13
-3.06573817764091e-13
2.13465927648254e-13
-3.6132011900447e-13
2.73371823332253e-13
-4.34311079841799e-13
3.37939704509785e-13
-5.28390341402107e-13
4.07533812719042e-13
-6.47343618933654e-13
4.8207869754315e-13
-7.96067381338264e-13
5.60764683185944e-13
-9.80822312153644e-13
6.41557816331561e-13
-1.20936950978524e-12
7.20495364286504e-13
-1.49111061085179e-12
7.90608931578163e-13
-1.83680448448195e-12
8.40481716313701e-13
-2.25786083150556e-12
8.5232606847484e-13
-2.76414115904992e-12
7.99938089370058e-13
-3.35906812832675e-12
6.4683156965801e-13
-4.02824936474198e-12
3.47416156332386e-13
-4.71043876475527e-12
-1.46783853318158e-13
-5.23004660986304e-12
-8.59853718795605e-13
-5.13194290863938e-12
-1.74258255861898e-12
-3.42393362241826e-12
-2.54668391773333e-12
1.57231239375065e-12
-2.76251502076755e-12
1.08890350182702e-11
-1.68910061177704e-12
2.02210959290793e-11
1.56091110665093e-11
1.26414760273127e-12
1.42308183306565e-11
2.08627318054558e-12
1.95611127549929e-11
1.97304572088821e-12
1.13694295281396e-11
1.38346316230593e-12
2.433106983845e-12
6.95335003034011e-13
-2.67082438138177e-12
1.10298453958249e-13
-4.62559995890501e-12
-3.1617855788945e-13
-4.93973055705534e-12
-5.89834266192371e-13
-4.58204430917625e-12
-7.41723743755003e-13
-4.01338465201139e-12
-8.0531582074761e-13
-3.42024901415796e-12
-8.09647565658188e-13
-2.87239802116814e-12
-7.76844060535399e-13
-2.39190704860799e-12
-7.22700072497246e-13
-1.98173076587661e-12
-6.57848220084006e-13
-1.63707115188743e-12
-5.89101647400443e-13
-1.35021223717947e-12
-5.20574310428915e-13
-1.11294988079393e-12
-4.54553029631512e-13
-9.17641674713616e-13
-3.9213172228422e-13
-7.57643272015821e-13
-3.33636978871445e-13
-6.27429317516048e-13
-2.78938037554626e-13
-5.22510729190041e-13
-2.27611936780943e-13
-4.39346539316195e-13
-1.79088178792536e-13
-3.75190367666137e-13
-1.3269692766094e-13
-3.28001360165105e-13
-8.77327493860856e-14
-2.96301583259545e-13
-4.34652591538902e-14
-2.79154219096587e-13
8.37876302847646e-16
-2.76079028989762e-13
4.59051963581387e-14
-2.87047474378686e-13
9.24568123722793e-14
-3.12489369648216e-13
1.41179656988192e-13
-3.53296887724905e-13
1.9271900749485e-13
-4.10889580499251e-13
2.47612629792703e-13
-4.87254925761915e-13
3.06241476688778e-13
-5.85079787841225e-13
3.68694549122076e-13
-7.07859428669121e-13
4.34588104766983e-13
-8.60017385601334e-13
5.02760723812459e-13
-1.04703696903297e-12
5.70844927218956e-13
-1.27547331026859e-12
6.34628794960857e-13
-1.55288373703604e-12
6.87186920608735e-13
-1.88731473445194e-12
7.17730102192142e-13
-2.28631367912764e-12
7.10251257885636e-13
-2.75452669683751e-12
6.42328972320514e-13
-3.28896983709561e-12
4.84513308925313e-13
-3.86823216009228e-12
2.02839807672056e-13
-4.42656431514157e-12
-2.34138549828459e-13
-4.79089293316881e-12
-8.31635867758616e-13
-4.532277740166e-12
-1.53122118008935e-12
-2.72203426895881e-12
-2.12293283940945e-12
2.16679479914599e-12
-2.21446133710829e-12
1.09837036681105e-11
-1.33076977857561e-12
1.93398548755754e-11
1.42787873816606e-11
9.72569801486416e-13
1.32635766865971e-11
1.63191561494723e-12
1.89060019536216e-11
1.6021653303702e-12
1.14023540947119e-11
1.17853211215564e-12
2.85946307165192e-12
6.44236294343847e-13
-2.13424781029787e-12
1.63885956717098e-13
-4.14340607387068e-12
-2.04680617984061e-13
-4.56969654183127e-12
-4.54798452929733e-13
-4.33076798681395e-12
-6.04464223064817e-13
-3.86282111182854e-12
-6.77420827574667e-13
-3.34663032379682e-12
-6.96299922083073e-13
-2.85308033595262e-12
-6.79455215119228e-13
-2.40853370821234e-12
-6.40667935812838e-13
-2.02051886585981e-12
-5.89654761468555e-13
-1.68830320951335e-12
-5.32934417881621e-13
-1.40736596363695e-12
-4.74659944363494e-13
-1.17186668767884e-12
-4.17301087843332e-13
-9.7584264527663e-13
-3.62194955778836e-13
-8.13780746021408e-13
-3.0991149777721e-13
-6.80919417263693e-13
-2.60540070213185e-13
-5.73250142430801e-13
-2.13856456373696e-13
-4.87543739457305e-13
-1.69454309539279e-13
-4.21236279024691e-13
-1.26815749967581e-13
-3.72397798471458e-13
-8.53602122991025e-14
-3.39614508223199e-13
-4.44781550076851e-14
-3.21978056579072e-13
-3.55042825347386e-15
-3.19019412406577e-13
3.80413068903884e-14
-3.30710526039853e-13
8.08982311257764e-14
-3.57464325102897e-13
1.25580879958583e-13
-4.00133686850178e-13
1.72582580998475e-13
-4.60071652030975e-13
2.22279742364057e-13
-5.39150024418216e-13
2.74855220993566e-13
-6.39862252045088e-13
3.30178019672005e-13
-7.65390618085701e-13
3.87623367205873e-13
-9.19665345469521e-13
4.45787890693427e-13
-1.10739175488568e-12
5.02129685218512e-13
-1.3339867282067e-12
5.52402647056408e-13
-1.60530411127772e-12