/*--------------------------------*- C++ -*----------------------------------*\
  =========                 |
  \\      /  F ield         | OpenFOAM: The Open Source CFD Toolbox
   \\    /   O peration     | Website:  https://openfoam.org
    \\  /    A nd           | Version:  10
     \\/     M anipulation  |
\*---------------------------------------------------------------------------*/
FoamFile
{
    format      ascii;
    class       volScalarField;
    location    "8.8";
    object      rho;
}
// * * * * * * * * * * * * * * * * * * * * * * * * * * * * * * * * * * * * * //

dimensions      [1 -3 0 0 0 0 0];

internalField   nonuniform List<scalar> 
2500
(
1.14607815021622
1.14608476139423
1.1461160956728
1.14614239579709
1.1461604670159
1.14617201158701
1.14617913190667
1.14618341763399
1.1461859292518
1.14618735275907
1.14618813705959
1.14618855254534
1.14618876476587
1.14618887132349
1.14618892362448
1.14618894983969
1.14618896183666
1.14618896860558
1.14618897317334
1.14618897585786
1.14618897779182
1.14618897929099
1.14618898044854
1.14618898115428
1.14618898184024
1.1461889823506
1.14618898249249
1.14618898243489
1.14618898212143
1.14618898147577
1.14618898033476
1.14618897810795
1.14618897462562
1.14618896814978
1.14618895531748
1.14618892900369
1.14618887480187
1.14618876520344
1.14618854492278
1.14618812149748
1.1461873304836
1.14618590001421
1.14618339414679
1.14617913096682
1.14617204405262
1.14616054047433
1.14614244964258
1.14611600344241
1.1460845507413
1.14607845720707
1.14873593815725
1.1487977794828
1.14889076079819
1.1489659379549
1.14901801048611
1.14905181286644
1.14907306393449
1.14908611309825
1.14909392229835
1.14909845543485
1.14910100195347
1.1491023819873
1.14910310315952
1.14910346758586
1.14910364576895
1.14910373059869
1.14910376947614
1.14910378751327
1.14910379627791
1.14910380056574
1.14910380293281
1.14910380444338
1.1491038054902
1.14910380616777
1.14910380673738
1.14910380716172
1.14910380733778
1.14910380732676
1.14910380705806
1.14910380629803
1.14910380450948
1.14910380042305
1.14910379162447
1.14910377238099
1.14910373057951
1.14910364115911
1.14910345461594
1.14910307711013
1.14910233625352
1.14910093349384
1.1490983658875
1.14909382140122
1.14908602957363
1.14907304175393
1.14905189118835
1.1490181712405
1.14896598560136
1.14889031442401
1.14879684961665
1.14873747491625
1.15156006232299
1.1516828636127
1.15182281723613
1.1519314099037
1.15200572821569
1.15205370106669
1.15208376354019
1.15210219177434
1.15211321667523
1.15211962372131
1.15212322839408
1.15212518671535
1.15212621306017
1.15212673235506
1.15212698616341
1.15212710625329
1.15212716113149
1.15212718580052
1.15212719693396
1.1521272019813
1.15212720444058
1.15212720581631
1.15212720668716
1.15212720724683
1.15212720767894
1.15212720800122
1.15212720816478
1.15212720819142
1.1521272079795
1.15212720719747
1.15212720511854
1.15212720003362
1.15212718823529
1.15212716159248
1.15212710281464
1.15212697617921
1.15212671128314
1.15212617489443
1.15212512435479
1.15212313747292
1.15211950583948
1.15211308512226
1.15210208050888
1.15208372452932
1.15205377475987
1.15200585349126
1.15193125271795
1.15182173210795
1.15168062174505
1.15156046870811
1.15424701902765
1.1544115080636
1.15457064354815
1.15468910199923
1.15476820206023
1.15481822421805
1.15484898814803
1.15486753101764
1.15487846256395
1.15488473572507
1.1548882263654
1.15489010465187
1.15489108073041
1.15489157060094
1.15489180811354
1.15489191946814
1.15489196990894
1.15489199220007
1.15489200194657
1.15489200619663
1.15489200814726
1.15489200917016
1.15489200979179
1.1548920101889
1.1548920104829
1.15489201070744
1.15489201084448
1.15489201090544
1.15489201081831
1.1548920102692
1.15489200860143
1.15489200430048
1.154891993896
1.1548919699274
1.15489191635907
1.1548917996636
1.15489155311042
1.15489104908572
1.15489005275952
1.15488814951125
1.15488463350742
1.1548783440633
1.15486742162217
1.15484892680105
1.15481823001152
1.15476816742052
1.15468859044829
1.15456880016652
1.15440772175109
1.1542444399243
1.15657503430152
1.15675283585973
1.15690710707138
1.157017490815
1.15708926884862
1.15713364605383
1.15716038577423
1.15717621566011
1.15718540667932
1.15719061485444
1.15719348270743
1.15719501256251
1.15719580183128
1.15719619543508
1.15719638515419
1.15719647354968
1.15719651332717
1.15719653070296
1.15719653813615
1.1571965412736
1.15719654263947
1.15719654331356
1.15719654370878
1.15719654395753
1.15719654413581
1.15719654427761
1.15719654438054
1.15719654444778
1.15719654445053
1.15719654414007
1.15719654299059
1.15719653983658
1.15719653191983
1.15719651339366
1.15719647159434
1.15719637975826
1.15719618418868
1.15719578127365
1.15719497842018
1.15719343114938
1.15719054441344
1.15718532183164
1.157176131239
1.15716032346091
1.15713360107733
1.15708910186042
1.15701671550976
1.15690474036553
1.1567478489742
1.1565692904946
1.15843202809577
1.15859775839438
1.15873044649038
1.15882195468524
1.15887988334388
1.15891487849414
1.15893553066478
1.15894753809882
1.15895440647423
1.15895825222876
1.15896034991257
1.15896146062871
1.1589620303161
1.158962313068
1.1589624487937
1.15896251176381
1.15896253995891
1.15896255216413
1.1589625572924
1.15896255939002
1.15896256025265
1.15896256064784
1.15896256086967
1.15896256100586
1.15896256109988
1.15896256118005
1.15896256125074
1.15896256131339
1.15896256135256
1.15896256121418
1.15896256052368
1.15896255844266
1.15896255301441
1.1589625401284
1.15896251083526
1.15896244604209
1.15896230720909
1.1589620194282
1.15896144222878
1.15896032151767
1.15895821236417
1.15895435674592
1.15894748561217
1.15893548406924
1.15891481798207
1.15887966230785
1.15882109649515
1.15872794664736
1.15859229379741
1.15842415998525
1.15980668504968
1.15994439110558
1.16004785060562
1.16011681226223
1.1601593309354
1.16018443136973
1.160198940751
1.16020722792903
1.16021190028851
1.16021448722232
1.16021588631982
1.16021662247084
1.16021699829961
1.16021718419258
1.16021727317644
1.16021731434268
1.16021733270413
1.16021734059132
1.16021734385112
1.16021734514181
1.16021734563791
1.16021734584148
1.1602173459479
1.16021734601053
1.16021734605077
1.16021734609022
1.16021734613499
1.1602173461859
1.16021734623148
1.16021734619622
1.16021734583053
1.16021734457225
1.16021734114958
1.16021733290573
1.16021731404398
1.16021727209762
1.16021718179225
1.16021699371984
1.16021661453595
1.16021587374109
1.16021446904154
1.16021187694961
1.16020720244927
1.16019891503553
1.16018438161618
1.16015912575935
1.16011603387785
1.16004557647288
1.15993920840037
1.15979818781058
1.16075708875719
1.1608611304742
1.16093529253283
1.16098319378377
1.16101198148589
1.16102859547013
1.16103800538184
1.16104328690124
1.16104622328568
1.1610478319399
1.16104869529057
1.16104914711952
1.16104937696127
1.16104949037471
1.16104954456983
1.16104956959577
1.16104958072421
1.16104958547101
1.16104958740144
1.1610495881397
1.16104958840018
1.16104958848846
1.16104958852842
1.16104958854979
1.16104958856033
1.16104958857588
1.16104958860212
1.16104958863931
1.16104958867767
1.16104958868388
1.16104958851465
1.16104958781712
1.16104958580867
1.16104958089478
1.16104956958365
1.1610495443182
1.16104948973268
1.1610493756561
1.16104914473529
1.16104869132722
1.16104782599199
1.16104621559198
1.16104327892281
1.16103799694374
1.16102856636119
1.16101182855437
1.16098258561805
1.16093346043687
1.16085676482118
1.16074925705359
1.16137410982993
1.16144654833056
1.1614959200429
1.16152689334221
1.16154505531204
1.16155530815674
1.16156100023447
1.16156414073903
1.16156586317596
1.1615667973362
1.16156729519028
1.16156755454775
1.16156768611609
1.16156775093797
1.16156778188538
1.16156779616075
1.16156780249296
1.161567805176
1.16156780624955
1.16156780664564
1.16156780676838
1.16156780679524
1.16156780680463
1.16156780680751
1.16156780680425
1.16156780680732
1.16156780682158
1.16156780684644
1.16156780687646
1.16156780689436
1.1615678068265
1.16156780646801
1.16156780536188
1.16156780260856
1.16156779623188
1.16156778193758
1.16156775097878
1.16156768612525
1.16156755445965
1.1615672949099
1.16156679682392
1.16156586277045
1.16156414152763
1.16156100219385
1.16155529755587
1.16154495989239
1.16152647286697
1.1614945883418
1.16144322261955
1.16136771056563
1.16175204653529
1.16179897997306
1.16182974676444
1.16184853372974
1.16185929366373
1.16186523921142
1.16186847602413
1.16187023202998
1.16187118238502
1.16187169285158
1.16187196314796
1.16187210340624
1.16187217441026
1.16187220936396
1.16187222604761
1.16187223373963
1.16187223714449
1.1618722385777
1.16187223914167
1.1618722393408
1.16187223939095
1.16187223939178
1.16187223938786
1.16187223938309
1.16187223937815
1.16187223937805
1.16187223938504
1.16187223940029
1.16187223942142
1.16187223943831
1.16187223941711
1.16187223924527
1.16187223866967
1.16187223720969
1.16187223380639
1.16187222615557
1.16187220956027
1.16187217474813
1.16187210393581
1.16187196392596
1.1618716940014
1.16187118432537
1.16187023578888
1.16186848223713
1.16186524020458
1.16185924371622
1.16184827238097
1.16182886166569
1.16179665802163
1.16174730634787
1.16197136645166
1.16199987864058
1.16201794047742
1.16202869622495
1.16203471968001
1.16203797979866
1.1620397209926
1.16204065004823
1.16204114630419
1.16204141037299
1.16204154935768
1.16204162123269
1.16204165756457
1.16204167544558
1.16204168398284
1.16204168791879
1.16204168965781
1.1620416903849
1.16204169066596
1.16204169075833
1.16204169077483
1.16204169076956
1.16204169076292
1.16204169075683
1.16204169075247
1.16204169075146
1.16204169075468
1.16204169076379
1.16204169077739
1.16204169078959
1.1620416907861
1.16204169070897
1.16204169042489
1.16204168968819
1.16204168795897
1.16204168406288
1.16204167560647
1.16204165785942
1.16204162172345
1.16204155012617
1.16204141157282
1.16204114833744
1.16204065384716
1.16203972760165
1.1620379857936
1.16203469872133
1.16202854885294
1.16201739716239
1.16199837753696
1.16196813584062
1.16209239551285
1.1621087358219
1.16211877778659
1.16212461994174
1.16212782256745
1.16212952164559
1.1621304122917
1.16213087978615
1.16213112627614
1.16213125624054
1.16213132425351
1.16213135932177
1.16213137703073
1.16213138574847
1.16213138991382
1.16213139183476
1.16213139268204
1.16213139303379
1.16213139316702
1.16213139320615
1.16213139320956
1.16213139320495
1.16213139319938
1.16213139319454
1.16213139319141
1.1621313931903
1.16213139319174
1.16213139319696
1.16213139320509
1.16213139321321
1.16213139321478
1.16213139318185
1.16213139304827
1.16213139269284
1.1621313918525
1.16213138995594
1.16213138584008
1.16213137720587
1.16213135962299
1.16213132474275
1.1621312570423
1.16213112771103
1.16213088260538
1.16213041758144
1.16212952838238
1.16212781687773
1.16212454426476
1.16211846737134
1.16210782988364
1.1620903479993
1.16215611740588
1.16216499646821
1.16217030780544
1.1621733315854
1.16217495595092
1.16217580128811
1.16217623639126
1.16217646110009
1.16217657805808
1.16217663916873
1.16217667097444
1.16217668733104
1.16217669558613
1.16217669965263
1.16217670159776
1.1621767024953
1.16217670289053
1.16217670305337
1.16217670311325
1.16217670312882
1.16217670312862
1.16217670312519
1.16217670312141
1.16217670311822
1.16217670311624
1.1621767031154
1.16217670311604
1.16217670311889
1.16217670312343
1.16217670312834
1.16217670313056
1.16217670311723
1.162176703057
1.16217670289235
1.16217670250022
1.16217670161418
1.16217669969296
1.16217669566748
1.16217668747575
1.16217667121882
1.16217663959531
1.1621765788898
1.16217646287626
1.16217624001041
1.16217580680478
1.16217495668375
1.16217329626886
1.16217014173323
1.16216448265563
1.16215490080209
1.16218822000102
1.16219281424014
1.16219549709237
1.16219699403726
1.16219778291078
1.16219818592215
1.16219838969569
1.16219849325959
1.16219854647225
1.16219857402619
1.162198588291
1.1621985956099
1.16219859930289
1.16219860112394
1.16219860199623
1.16219860239905
1.16219860257613
1.16219860264849
1.16219860267415
1.16219860267995
1.16219860267909
1.16219860267689
1.16219860267462
1.16219860267275
1.16219860267161
1.16219860267109
1.16219860267137
1.16219860267284
1.16219860267524
1.16219860267797
1.1621986026796
1.16219860267449
1.16219860264835
1.16219860257485
1.16219860239855
1.16219860199988
1.16219860113674
1.16219859933175
1.16219859566412
1.16219858838839
1.1621985742147
1.1621985468913
1.1621984942598
1.16219839191745
1.16219818975138
1.16219778542282
1.16219697922257
1.16219541349733
1.16219253885993
1.16218753789299
1.16220373395597
1.16220600594873
1.16220730450046
1.16220801565485
1.16220838369561
1.1622085684097
1.16220866020194
1.16220870611952
1.16220872941023
1.16220874136201
1.16220874751744
1.16220875066906
1.16220875225945
1.16220875304473
1.16220875342151
1.16220875359567
1.1622087536721
1.16220875370306
1.16220875371361
1.16220875371561
1.16220875371488
1.16220875371361
1.16220875371237
1.16220875371136
1.16220875371075
1.16220875371046
1.16220875371058
1.16220875371131
1.16220875371251
1.16220875371393
1.1622087537149
1.16220875371304
1.16220875370207
1.16220875367036
1.16220875359375
1.16220875342046
1.16220875304607
1.16220875226518
1.162208750682
1.16220874754498
1.16220874142934
1.16220872959738
1.16220870663608
1.16220866145687
1.16220857078724
1.16220838605159
1.16220801023271
1.16220726476382
1.16220586582333
1.16220337118417
1.1622109393009
1.1622120166407
1.16221262069479
1.16221294583887
1.16221311126189
1.16221319288846
1.16221323277564
1.1622132524187
1.16221326225447
1.16221326725627
1.16221326981914
1.16221327112887
1.16221327179003
1.162213272117
1.16221327227418
1.16221327234691
1.16221327237877
1.16221327239156
1.16221327239573
1.16221327239634
1.16221327239589
1.16221327239522
1.16221327239459
1.16221327239408
1.16221327239377
1.16221327239362
1.16221327239368
1.16221327239402
1.1622132723946
1.16221327239529
1.1622132723958
1.16221327239516
1.1622132723907
1.16221327237743
1.16221327234518
1.16221327227222
1.162213272115
1.16221327178812
1.16221327112732
1.16221326982044
1.1622132672726
1.16221326232861
1.16221325266724
1.16221323343804
1.16221319424487
1.16221311292932
1.16221294425073
1.16221260280918
1.162211948673
1.16221075547145
1.16221415802876
1.16221464926808
1.16221492002739
1.16221506346021
1.16221513527422
1.16221517014173
1.16221518690483
1.16221519503386
1.16221519905213
1.16221520107703
1.1622152021093
1.16221520263592
1.1622152029019
1.16221520303368
1.16221520309716
1.16221520312656
1.16221520313941
1.16221520314452
1.16221520314611
1.16221520314628
1.16221520314603
1.1622152031457
1.16221520314539
1.16221520314515
1.162215203145
1.16221520314493
1.16221520314496
1.16221520314512
1.16221520314538
1.1622152031457
1.16221520314595
1.16221520314574
1.16221520314397
1.16221520313859
1.1622152031254
1.16221520309559
1.16221520303152
1.16221520289879
1.16221520263142
1.16221520210398
1.16221520107638
1.16221519907766
1.16221519514653
1.1622151872351
1.16221517086429
1.16221513629377
1.16221506321653
1.16221491239121
1.16221461773227
1.16221406893601
1.16221553874385
1.16221575468496
1.16221587190302
1.16221593309094
1.16221596327052
1.16221597770004
1.16221598452922
1.16221598779125
1.1622159893831
1.16221599017794
1.16221599058108
1.16221599078641
1.16221599089018
1.1622159909417
1.16221599096656
1.16221599097809
1.16221599098311
1.16221599098509
1.16221599098567
1.1622159909857
1.16221599098558
1.16221599098543
1.16221599098529
1.16221599098518
1.16221599098511
1.16221599098508
1.16221599098509
1.16221599098516
1.16221599098528
1.16221599098542
1.16221599098554
1.16221599098548
1.16221599098479
1.16221599098267
1.16221599097743
1.16221599096558
1.1622159909402
1.16221599088783
1.16221599078273
1.16221599057604
1.16221599017386
1.16221598939025
1.16221598783981
1.16221598468604
1.16221597806333
1.16221596383582
1.16221593320779
1.1622158688084
1.16221574064562
1.16221549731139
1.16221610303219
1.16221619475402
1.16221624386919
1.16221626916243
1.16221628146446
1.16221628726138
1.16221628996386
1.16221629123577
1.16221629184854
1.16221629215168
1.16221629230464
1.1622162923824
1.16221629242174
1.16221629244129
1.16221629245075
1.16221629245513
1.16221629245703
1.16221629245777
1.16221629245798
1.16221629245798
1.16221629245792
1.16221629245785
1.16221629245779
1.16221629245774
1.16221629245771
1.1622162924577
1.16221629245771
1.16221629245774
1.16221629245779
1.16221629245785
1.1622162924579
1.16221629245789
1.16221629245763
1.16221629245682
1.1622162924548
1.16221629245022
1.16221629244044
1.16221629242033
1.16221629238013
1.16221629230135
1.16221629214831
1.16221629184977
1.16221629125582
1.16221629003521
1.16221628743513
1.16221628175556
1.16221626931216
1.16221624267951
1.16221618874089
1.16221608449002
1.16221631709939
1.16221635482199
1.16221637477742
1.16221638492701
1.16221638979972
1.16221639206449
1.16221639310515
1.16221639358789
1.16221639381749
1.16221639393
1.16221639398646
1.1622163940151
1.16221639402959
1.1622163940368
1.16221639404028
1.1622163940419
1.16221639404259
1.16221639404285
1.16221639404292
1.16221639404291
1.16221639404289
1.16221639404286
1.16221639404283
1.16221639404281
1.1622163940428
1.1622163940428
1.1622163940428
1.16221639404281
1.16221639404283
1.16221639404286
1.16221639404289
1.16221639404289
1.1622163940428
1.1622163940425
1.16221639404175
1.16221639404003
1.16221639403637
1.16221639402886
1.1622163940139
1.16221639398466
1.16221639392797
1.16221639381727
1.16221639359589
1.16221639313643
1.162216392144
1.1622163899409
1.16221638503164
1.16221637434463
1.16221635233826
1.16221630909353
1.16221638577114
1.16221640082105
1.16221640869629
1.16221641265627
1.16221641453459
1.16221641539637
1.16221641578689
1.16221641596548
1.16221641604932
1.16221641608999
1.16221641611026
1.16221641612051
1.16221641612569
1.16221641612826
1.16221641612949
1.16221641613006
1.1622164161303
1.16221641613038
1.1622164161304
1.16221641613039
1.16221641613038
1.16221641613037
1.16221641613036
1.16221641613035
1.16221641613034
1.16221641613034
1.16221641613035
1.16221641613035
1.16221641613036
1.16221641613037
1.16221641613039
1.16221641613039
1.16221641613037
1.16221641613027
1.16221641613
1.16221641612939
1.16221641612807
1.16221641612535
1.16221641611994
1.16221641610939
1.16221641608894
1.16221641604897
1.1622164159686
1.16221641580016
1.16221641543136
1.16221641459968
1.1622164127159
1.16221640854809
1.16221639982956
1.16221638242864
1.1622163959126
1.16221640174715
1.16221640477043
1.16221640627476
1.16221640698034
1.16221640730011
1.16221640744307
1.16221640750752
1.16221640753736
1.16221640755166
1.16221640755872
1.16221640756226
1.16221640756403
1.1622164075649
1.16221640756531
1.16221640756549
1.16221640756556
1.16221640756558
1.16221640756558
1.16221640756558
1.16221640756557
1.16221640756556
1.16221640756556
1.16221640756556
1.16221640756555
1.16221640756555
1.16221640756556
1.16221640756556
1.16221640756557
1.16221640756557
1.16221640756558
1.16221640756559
1.16221640756559
1.16221640756556
1.16221640756548
1.16221640756528
1.16221640756483
1.1622164075639
1.16221640756202
1.16221640755833
1.16221640755118
1.16221640753714
1.16221640750873
1.16221640744855
1.16221640731497
1.16221640700905
1.16221640630508
1.16221640472317
1.16221640136391
1.16221639456042
1.16221638316686
1.16221638536823
1.16221638649872
1.16221638705576
1.16221638731428
1.16221638743007
1.16221638748114
1.16221638750381
1.16221638751413
1.16221638751899
1.16221638752135
1.1622163875225
1.16221638752307
1.16221638752333
1.16221638752345
1.16221638752349
1.1622163875235
1.1622163875235
1.16221638752349
1.16221638752348
1.16221638752348
1.16221638752347
1.16221638752347
1.16221638752347
1.16221638752347
1.16221638752347
1.16221638752347
1.16221638752347
1.16221638752348
1.16221638752348
1.16221638752349
1.1622163875235
1.16221638752351
1.16221638752351
1.1622163875235
1.16221638752345
1.16221638752332
1.16221638752302
1.16221638752242
1.1622163875212
1.1622163875188
1.16221638751403
1.16221638750428
1.16221638748335
1.16221638743619
1.16221638732647
1.16221638707001
1.16221638648498
1.16221638522454
1.16221638263586
1.16221636171386
1.16221636252331
1.16221636293547
1.16221636313664
1.16221636322906
1.16221636326995
1.16221636328773
1.16221636329546
1.1622163632989
1.16221636330046
1.16221636330119
1.16221636330152
1.16221636330167
1.16221636330172
1.16221636330174
1.16221636330173
1.16221636330172
1.16221636330171
1.1622163633017
1.16221636330169
1.16221636330169
1.16221636330168
1.16221636330168
1.16221636330168
1.16221636330168
1.16221636330168
1.16221636330168
1.16221636330168
1.16221636330169
1.16221636330169
1.1622163633017
1.16221636330171
1.16221636330172
1.16221636330173
1.16221636330174
1.16221636330175
1.16221636330173
1.16221636330166
1.1622163633015
1.16221636330115
1.1622163633004
1.16221636329887
1.16221636329566
1.16221636328861
1.16221636327241
1.16221636323406
1.16221636314295
1.162216362932
1.16221636247097
1.1622163615111
1.16221633703323
1.16221633732365
1.16221633747021
1.16221633754102
1.1622163375732
1.16221633758725
1.16221633759324
1.16221633759576
1.16221633759683
1.16221633759728
1.16221633759745
1.16221633759751
1.16221633759752
1.1622163375975
1.16221633759748
1.16221633759746
1.16221633759744
1.16221633759743
1.16221633759742
1.16221633759741
1.1622163375974
1.1622163375974
1.1622163375974
1.1622163375974
1.1622163375974
1.1622163375974
1.1622163375974
1.1622163375974
1.16221633759741
1.16221633759741
1.16221633759742
1.16221633759743
1.16221633759744
1.16221633759745
1.16221633759747
1.16221633759749
1.16221633759751
1.16221633759753
1.16221633759752
1.16221633759745
1.16221633759727
1.16221633759684
1.16221633759586
1.16221633759359
1.16221633758822
1.16221633757519
1.16221633754368
1.16221633746956
1.1622163373051
1.16221633695783
1.16221631118531
1.16221631128707
1.16221631133783
1.16221631136203
1.16221631137287
1.16221631137751
1.16221631137943
1.16221631138018
1.16221631138046
1.16221631138054
1.16221631138054
1.16221631138051
1.16221631138047
1.16221631138044
1.16221631138041
1.16221631138038
1.16221631138036
1.16221631138035
1.16221631138034
1.16221631138033
1.16221631138032
1.16221631138032
1.16221631138032
1.16221631138032
1.16221631138032
1.16221631138032
1.16221631138032
1.16221631138032
1.16221631138033
1.16221631138033
1.16221631138034
1.16221631138035
1.16221631138036
1.16221631138037
1.1622163113804
1.16221631138042
1.16221631138045
1.16221631138049
1.16221631138053
1.16221631138055
1.16221631138055
1.16221631138048
1.16221631138024
1.16221631137958
1.16221631137789
1.16221631137364
1.1622163113631
1.16221631133781
1.16221631128066
1.16221631115797
1.162216284925
1.16221628495983
1.16221628497684
1.16221628498475
1.16221628498821
1.16221628498964
1.16221628499018
1.16221628499036
1.16221628499038
1.16221628499035
1.1622162849903
1.16221628499025
1.16221628499021
1.16221628499017
1.16221628499014
1.16221628499011
1.16221628499009
1.16221628499008
1.16221628499007
1.16221628499006
1.16221628499005
1.16221628499005
1.16221628499005
1.16221628499005
1.16221628499005
1.16221628499005
1.16221628499005
1.16221628499005
1.16221628499005
1.16221628499006
1.16221628499006
1.16221628499007
1.16221628499009
1.1622162849901
1.16221628499012
1.16221628499015
1.16221628499018
1.16221628499022
1.16221628499027
1.16221628499032
1.16221628499037
1.16221628499041
1.1622162849904
1.16221628499026
1.16221628498979
1.1622162849885
1.16221628498516
1.1622162849769
1.16221628495766
1.16221628491531
1.16221625852221
1.16221625853383
1.16221625853922
1.16221625854157
1.16221625854254
1.1622162585429
1.16221625854301
1.16221625854301
1.16221625854296
1.1622162585429
1.16221625854285
1.16221625854279
1.16221625854275
1.16221625854271
1.16221625854268
1.16221625854266
1.16221625854264
1.16221625854263
1.16221625854262
1.16221625854261
1.1622162585426
1.1622162585426
1.1622162585426
1.1622162585426
1.1622162585426
1.1622162585426
1.1622162585426
1.1622162585426
1.1622162585426
1.16221625854261
1.16221625854261
1.16221625854262
1.16221625854263
1.16221625854265
1.16221625854267
1.16221625854269
1.16221625854272
1.16221625854276
1.16221625854281
1.16221625854286
1.16221625854292
1.16221625854298
1.16221625854303
1.16221625854305
1.16221625854297
1.16221625854265
1.16221625854172
1.16221625853926
1.16221625853311
1.16221625851885
1.16221623207122
1.16221623207498
1.16221623207646
1.16221623207696
1.16221623207711
1.16221623207714
1.16221623207711
1.16221623207706
1.16221623207701
1.16221623207695
1.1622162320769
1.16221623207685
1.16221623207681
1.16221623207678
1.16221623207675
1.16221623207673
1.16221623207671
1.1622162320767
1.16221623207669
1.16221623207669
1.16221623207668
1.16221623207668
1.16221623207668
1.16221623207667
1.16221623207667
1.16221623207667
1.16221623207668
1.16221623207668
1.16221623207668
1.16221623207668
1.16221623207669
1.1622162320767
1.16221623207671
1.16221623207672
1.16221623207674
1.16221623207676
1.16221623207679
1.16221623207682
1.16221623207686
1.16221623207691
1.16221623207697
1.16221623207703
1.16221623207709
1.16221623207714
1.16221623207717
1.16221623207715
1.16221623207701
1.16221623207646
1.16221623207473
1.16221623207007
1.16221620560426
1.16221620560541
1.1622162056056
1.16221620560551
1.16221620560541
1.16221620560534
1.16221620560529
1.16221620560524
1.16221620560519
1.16221620560515
1.1622162056051
1.16221620560506
1.16221620560503
1.162216205605
1.16221620560498
1.16221620560496
1.16221620560494
1.16221620560493
1.16221620560493
1.16221620560492
1.16221620560491
1.16221620560491
1.16221620560491
1.16221620560491
1.16221620560491
1.16221620560491
1.16221620560491
1.16221620560491
1.16221620560491
1.16221620560492
1.16221620560492
1.16221620560493
1.16221620560494
1.16221620560495
1.16221620560496
1.16221620560498
1.16221620560501
1.16221620560504
1.16221620560507
1.16221620560511
1.16221620560516
1.16221620560521
1.16221620560526
1.16221620560531
1.16221620560536
1.16221620560542
1.16221620560552
1.16221620560559
1.16221620560531
1.16221620560387
1.1622161791321
1.16221617913241
1.1622161791322
1.16221617913193
1.16221617913176
1.16221617913168
1.16221617913163
1.16221617913159
1.16221617913156
1.16221617913152
1.16221617913149
1.16221617913146
1.16221617913143
1.16221617913141
1.16221617913139
1.16221617913137
1.16221617913136
1.16221617913135
1.16221617913134
1.16221617913134
1.16221617913133
1.16221617913133
1.16221617913133
1.16221617913133
1.16221617913133
1.16221617913133
1.16221617913133
1.16221617913133
1.16221617913133
1.16221617913133
1.16221617913134
1.16221617913134
1.16221617913135
1.16221617913136
1.16221617913138
1.16221617913139
1.16221617913141
1.16221617913144
1.16221617913147
1.1622161791315
1.16221617913153
1.16221617913157
1.16221617913161
1.16221617913165
1.16221617913169
1.16221617913176
1.16221617913192
1.16221617913217
1.16221617913236
1.16221617913197
1.16221615265829
1.16221615265834
1.16221615265801
1.16221615265769
1.16221615265752
1.16221615265745
1.16221615265741
1.16221615265739
1.16221615265737
1.16221615265735
1.16221615265732
1.1622161526573
1.16221615265728
1.16221615265726
1.16221615265725
1.16221615265723
1.16221615265722
1.16221615265722
1.16221615265721
1.16221615265721
1.1622161526572
1.1622161526572
1.1622161526572
1.1622161526572
1.16221615265719
1.16221615265719
1.1622161526572
1.1622161526572
1.1622161526572
1.1622161526572
1.1622161526572
1.16221615265721
1.16221615265722
1.16221615265722
1.16221615265723
1.16221615265725
1.16221615265726
1.16221615265728
1.1622161526573
1.16221615265733
1.16221615265735
1.16221615265738
1.1622161526574
1.16221615265743
1.16221615265745
1.16221615265752
1.16221615265767
1.16221615265797
1.1622161526583
1.16221615265824
1.16221612618396
1.16221612618393
1.16221612618357
1.16221612618326
1.1622161261831
1.16221612618305
1.16221612618303
1.16221612618303
1.16221612618302
1.16221612618301
1.16221612618299
1.16221612618298
1.16221612618296
1.16221612618295
1.16221612618294
1.16221612618293
1.16221612618292
1.16221612618292
1.16221612618291
1.16221612618291
1.1622161261829
1.1622161261829
1.1622161261829
1.1622161261829
1.1622161261829
1.1622161261829
1.1622161261829
1.1622161261829
1.1622161261829
1.1622161261829
1.1622161261829
1.16221612618291
1.16221612618291
1.16221612618292
1.16221612618293
1.16221612618294
1.16221612618295
1.16221612618296
1.16221612618298
1.16221612618299
1.16221612618301
1.16221612618302
1.16221612618303
1.16221612618304
1.16221612618305
1.16221612618309
1.16221612618324
1.16221612618354
1.16221612618389
1.16221612618393
1.16221609970947
1.16221609970942
1.16221609970907
1.16221609970878
1.16221609970864
1.1622160997086
1.1622160997086
1.16221609970861
1.16221609970862
1.16221609970862
1.16221609970861
1.16221609970861
1.1622160997086
1.16221609970859
1.16221609970858
1.16221609970858
1.16221609970857
1.16221609970857
1.16221609970856
1.16221609970856
1.16221609970856
1.16221609970856
1.16221609970855
1.16221609970855
1.16221609970855
1.16221609970855
1.16221609970855
1.16221609970855
1.16221609970855
1.16221609970855
1.16221609970856
1.16221609970856
1.16221609970856
1.16221609970857
1.16221609970857
1.16221609970858
1.16221609970859
1.1622160997086
1.1622160997086
1.16221609970861
1.16221609970862
1.16221609970862
1.16221609970862
1.16221609970861
1.1622160997086
1.16221609970862
1.16221609970875
1.16221609970903
1.16221609970939
1.16221609970945
1.16221607323493
1.16221607323489
1.16221607323455
1.16221607323428
1.16221607323416
1.16221607323414
1.16221607323416
1.16221607323419
1.16221607323421
1.16221607323422
1.16221607323422
1.16221607323422
1.16221607323422
1.16221607323422
1.16221607323421
1.16221607323421
1.16221607323421
1.16221607323421
1.1622160732342
1.1622160732342
1.1622160732342
1.1622160732342
1.16221607323419
1.16221607323419
1.16221607323419
1.16221607323419
1.16221607323419
1.16221607323419
1.16221607323419
1.16221607323419
1.16221607323419
1.1622160732342
1.1622160732342
1.1622160732342
1.1622160732342
1.16221607323421
1.16221607323421
1.16221607323421
1.16221607323422