/*--------------------------------*- C++ -*----------------------------------*\
  =========                 |
  \\      /  F ield         | OpenFOAM: The Open Source CFD Toolbox
   \\    /   O peration     | Website:  https://openfoam.org
    \\  /    A nd           | Version:  10
     \\/     M anipulation  |
\*---------------------------------------------------------------------------*/
FoamFile
{
    format      ascii;
    class       volScalarField;
    location    "8.8";
    object      T;
}
// * * * * * * * * * * * * * * * * * * * * * * * * * * * * * * * * * * * * * //

dimensions      [0 0 0 1 0 0 0];

internalField   nonuniform List<scalar> 
2500
(
304.224534408465
304.222779494439
304.214462188393
304.207481489165
304.202685129503
304.199621114715
304.197731359929
304.196593926077
304.195927345648
304.19554954982
304.195341398548
304.195231129876
304.195174807235
304.195146527209
304.19513264672
304.19512568931
304.195122505368
304.19512070893
304.195119496671
304.195118784215
304.195118270953
304.19511787308
304.195117565873
304.195117378573
304.195117196521
304.195117061073
304.195117023417
304.195117038701
304.195117121889
304.195117293243
304.195117596057
304.195118187037
304.195119111226
304.195120829882
304.195124235516
304.195131219088
304.195145604052
304.195174691099
304.195233152875
304.195345528681
304.195555461668
304.195935105241
304.196600159554
304.197731609346
304.19961249816
304.202665632856
304.207467197528
304.214486669106
304.222835411169
304.224452918184
303.520654507997
303.50431558554
303.47975256441
303.459895803025
303.446143257064
303.437216592118
303.431604795819
303.428158989638
303.426096903404
303.424899902742
303.424227484082
303.423863081772
303.423672654327
303.423576426688
303.423529377053
303.423506977588
303.423496711927
303.423491949195
303.423489634881
303.423488502677
303.423487877653
303.423487478787
303.423487202375
303.423487023462
303.423486873057
303.423486761008
303.423486714519
303.423486717427
303.423486788375
303.423486989057
303.423487461322
303.423488540345
303.423490863622
303.423495944891
303.423506982649
303.423530594286
303.42357985142
303.423679532731
303.423875157903
303.424245561084
303.424923548133
303.426123545966
303.428181045169
303.43161065294
303.437195909142
303.446100803133
303.459883218802
303.479870474227
303.504561249754
303.520248463785
302.776283542737
302.743999206525
302.707213932504
302.678677700457
302.659151263749
302.646548186975
302.638650928697
302.633810129503
302.630914140351
302.629231181474
302.628284339034
302.627769947637
302.627500358808
302.627363956405
302.627297289004
302.627265745223
302.627251330479
302.627244850723
302.627241926331
302.627240600563
302.627239954592
302.627239593237
302.627239364494
302.627239217489
302.627239103987
302.627239019335
302.627238976372
302.627238969373
302.627239025033
302.627239230446
302.627239776508
302.627241112146
302.627244211184
302.627251209388
302.627266648443
302.627299911534
302.627369491329
302.627510383746
302.627786327829
302.628308221294
302.629262145687
302.63094869597
302.633839356663
302.638661176368
302.646528827622
302.659118350865
302.678719002161
302.707499112098
302.744588529519
302.77617669304
302.071447722077
302.028406362872
301.986777523514
301.955796989706
301.935113426567
301.922034792356
301.913991915866
301.909144302415
301.906286570102
301.904646660496
301.903734156269
301.903243147129
301.902987987826
301.902859929637
301.902797840968
301.902768731546
301.902755545727
301.902749718569
301.902747170726
301.902746059717
301.902745549802
301.902745282408
301.902745119909
301.902745016103
301.902744939249
301.902744880549
301.902744844726
301.902744828789
301.902744851561
301.902744995101
301.902745431072
301.902746555385
301.902749275231
301.9027555409
301.902769544292
301.902800049883
301.90286450187
301.90299626014
301.903256712457
301.903754246999
301.904673381756
301.906317548323
301.909172900917
301.914007953886
301.922033277657
301.935122483718
301.95593076233
301.987259674779
302.029396978074
302.072122686016
301.463415540237
301.417078359968
301.376885005375
301.34813253746
301.329438927112
301.317882649257
301.310919780754
301.306797921739
301.304404773368
301.303048690855
301.302301976712
301.301903643874
301.301698140084
301.301595656643
301.301546259118
301.301523243432
301.301512886505
301.30150836235
301.301506426964
301.301505610066
301.301505254438
301.301505078928
301.301504976026
301.301504911261
301.301504864843
301.301504827923
301.301504801121
301.301504783611
301.301504782892
301.301504863724
301.301505163011
301.301505984219
301.301508045509
301.301512869191
301.301523752544
301.301547664064
301.301598584889
301.301703492717
301.301912533596
301.302315401047
301.303067031895
301.304426865739
301.306819903388
301.310936006393
301.317894361129
301.329482414197
301.34833446777
301.377501538745
301.418377806856
301.464912681453
300.980155762979
300.937102398862
300.90264160479
300.878880355341
300.863840392934
300.854755364027
300.849394148112
300.846277157042
300.844494235255
300.84349594737
300.842951429643
300.842663110255
300.842515231188
300.842441834706
300.842406603174
300.842390257473
300.842382938631
300.842379770421
300.842378439239
300.842377894747
300.842377670832
300.842377568252
300.842377510673
300.842377475321
300.842377450918
300.842377430106
300.842377411755
300.842377395491
300.842377385321
300.842377421239
300.842377600474
300.842378140654
300.842379549706
300.842382894633
300.842390498503
300.842407317433
300.842443355555
300.842518057457
300.842667886496
300.842958800387
300.843506295452
300.844507143857
300.84629078182
300.84940624389
300.854771072969
300.863897777429
300.879103177691
300.903290772983
300.938521793704
300.982200044459
300.623413219173
300.587723866118
300.560915785685
300.5430493271
300.532034726307
300.525532756037
300.521774400986
300.519627821168
300.518417580445
300.517747513647
300.517385121106
300.517194444525
300.517097098106
300.517048948511
300.517025900119
300.517015237342
300.517010481411
300.517008438499
300.51700759416
300.517007259854
300.517007131361
300.517007078636
300.517007051072
300.517007034851
300.51700702443
300.517007014212
300.517007002615
300.517006989426
300.517006977619
300.517006986747
300.517007081463
300.517007407374
300.517008293898
300.517010429195
300.51701531471
300.517026179549
300.517049570237
300.517098284346
300.517196499803
300.517388379225
300.517752222812
300.518423625686
300.519634420988
300.521781061952
300.525545643814
300.532087875876
300.543250977613
300.561504999944
300.589066917137
300.625615730785
300.377262202695
300.350341009634
300.33115423813
300.318762811132
300.311316301031
300.30701893255
300.304585022001
300.303218953606
300.302459461269
300.302043386415
300.301820083165
300.301703219008
300.301643771194
300.3016144372
300.301600419827
300.301593946963
300.301591068642
300.301589840905
300.301589341614
300.301589150669
300.301589083302
300.301589060473
300.30158905014
300.301589044611
300.301589041887
300.301589037865
300.301589031078
300.301589021456
300.301589011534
300.301589009925
300.301589053691
300.301589234099
300.30158975357
300.301591024524
300.301593950098
300.301600484908
300.301614603256
300.30164410877
300.301703835677
300.301821108269
300.302044924824
300.302461451224
300.303221017215
300.304587204523
300.307026461742
300.311355858814
300.318920129223
300.331628197667
300.351470542067
300.379288881289
300.217669324868
300.198944986329
300.18618442789
300.178179656599
300.173486056938
300.170836478043
300.169365529973
300.168553966215
300.168108858911
300.167867456413
300.167738802828
300.167671780696
300.167637781343
300.167621030347
300.167613033055
300.167609344082
300.167607707747
300.167607014414
300.167606736998
300.167606634646
300.167606602932
300.167606595994
300.167606593569
300.167606592824
300.167606593668
300.167606592875
300.167606589189
300.167606582764
300.167606575005
300.167606570377
300.16760658791
300.167606680543
300.16760696638
300.167607677873
300.1676093257
300.167613019566
300.167621019801
300.167637778974
300.167671803458
300.167738875279
300.167867588789
300.168108963698
300.168553762423
300.169365023626
300.170839217531
300.173510715855
300.178288321783
300.186528603639
300.199804584909
300.219323557375
300.119996834294
300.107872823225
300.099925568557
300.095072984667
300.09229381541
300.090758169702
300.089922156148
300.089468611705
300.089223152814
300.089091309037
300.08902149669
300.088985270695
300.088966931744
300.088957903888
300.088953594836
300.088951608143
300.088950728741
300.088950358576
300.088950212918
300.088950161489
300.088950148539
300.088950148328
300.088950149342
300.088950150576
300.088950151851
300.088950151878
300.088950150071
300.088950146133
300.088950140673
300.088950136307
300.088950141781
300.08895018616
300.088950334821
300.088950711901
300.0889515909
300.08895356695
300.088957853186
300.088966844475
300.088985133916
300.089021295745
300.089091012059
300.089222651655
300.089467640846
300.089920551437
300.090757913181
300.092306716163
300.095140488731
300.100154189213
300.108472614862
300.121221390654
300.06334291384
300.055980208127
300.051316284744
300.048539006734
300.04698369234
300.046141904798
300.045692317112
300.045452429388
300.045324293275
300.045256109248
300.045220222645
300.045201664131
300.045192283048
300.045187666079
300.045185461718
300.045184445439
300.04518399642
300.045183808686
300.045183736116
300.045183712271
300.045183708011
300.045183709376
300.045183711091
300.045183712662
300.04518371379
300.045183714051
300.045183713219
300.045183710865
300.045183707352
300.0451837042
300.045183705101
300.045183725013
300.045183798358
300.045183988576
300.045184435065
300.04518544105
300.045187624535
300.045192206915
300.045201537413
300.045220024215
300.045255799443
300.045323768276
300.04545144848
300.045690610612
300.046140356859
300.046989104044
300.048577059809
300.05145657731
300.056367829272
300.06417717766
300.03208522165
300.027866496513
300.025273930502
300.023765663104
300.022938848527
300.022500203163
300.022270268471
300.022149577329
300.022085942035
300.022052389666
300.022034831042
300.022025777615
300.022021205766
300.022018955143
300.022017879794
300.022017383876
300.022017165141
300.022017074334
300.02201703994
300.02201702984
300.022017028962
300.022017030151
300.022017031592
300.022017032842
300.022017033651
300.022017033937
300.022017033564
300.022017032215
300.022017030117
300.02201702802
300.022017027612
300.022017036112
300.022017070595
300.022017162353
300.022017379297
300.02201786892
300.022018931492
300.022021160551
300.02202569985
300.022034704737
300.022052182678
300.022085571592
300.022148849501
300.022268902838
300.02249846395
300.022940317428
300.023785200508
300.025354070724
300.02810038767
300.032613855064
300.015627403006
300.01333525196
300.011964134222
300.011183553095
300.010764228817
300.01054600835
300.01043368825
300.010375680581
300.010345488337
300.010329712852
300.010321502324
300.010317279921
300.010315148895
300.01031409914
300.010313597011
300.010313365313
300.010313263286
300.010313221252
300.010313205795
300.010313201776
300.010313201829
300.010313202715
300.010313203693
300.010313204516
300.010313205028
300.010313205244
300.010313205078
300.010313204343
300.010313203169
300.010313201901
300.010313201328
300.010313204766
300.010313220315
300.010313262816
300.010313364042
300.010313592772
300.010314088729
300.010315127893
300.010317242563
300.010321439237
300.010329602731
300.01034527363
300.010375222068
300.010432753982
300.010544584245
300.010764039642
300.011192669949
300.012007005452
300.013467892948
300.015941474888
300.007333374176
300.006147421551
300.005454876774
300.005068460378
300.004864823474
300.004760791618
300.004708190241
300.00468145659
300.00466772042
300.004660607705
300.004656925409
300.004655036113
300.004654082801
300.004653612713
300.004653387537
300.004653283553
300.00465323784
300.004653219161
300.004653212538
300.00465321104
300.004653211261
300.004653211829
300.004653212415
300.004653212899
300.004653213194
300.004653213329
300.004653213255
300.004653212875
300.004653212256
300.00465321155
300.004653211131
300.00465321245
300.004653219197
300.004653238169
300.004653283682
300.004653386596
300.004653609408
300.004654075353
300.004655022116
300.004656900267
300.004660559044
300.004667612248
300.0046811984
300.004707616726
300.004759803159
300.00486417503
300.005072284593
300.005476455745
300.006218507684
300.007509453704
300.003321820453
300.002735344809
300.002400147058
300.002216575527
300.002121572506
300.002073891862
300.002050197278
300.002038344403
300.002032332259
300.002029247067
300.002027658112
300.002026844551
300.002026434
300.00202623128
300.002026134012
300.002026089051
300.002026069319
300.002026061325
300.0020260586
300.002026058084
300.002026058271
300.002026058598
300.00202605892
300.002026059181
300.002026059339
300.002026059414
300.002026059381
300.002026059193
300.002026058883
300.002026058517
300.002026058266
300.002026058747
300.00202606158
300.002026069768
300.002026089547
300.002026134282
300.002026230933
300.00202643252
300.002026841209
300.002027651003
300.002029229686
300.002032283948
300.002038211063
300.002049873342
300.002073278148
300.002120964358
300.002217975156
300.00241040435
300.002771515699
300.003415463931
300.001455059595
300.001176966093
300.00102104187
300.000937112511
300.000894411834
300.000873341472
300.000863045291
300.000857974731
300.000855435743
300.000854144566
300.000853482966
300.000853144853
300.000852974165
300.000852889746
300.000852849162
300.000852830381
300.000852822153
300.000852818849
300.000852817771
300.00085281761
300.000852817726
300.000852817898
300.000852818062
300.000852818194
300.000852818273
300.000852818311
300.000852818296
300.000852818208
300.00085281806
300.000852817881
300.000852817749
300.000852817917
300.000852819071
300.000852822498
300.000852830829
300.000852849668
300.000852890262
300.000852974657
300.000853145252
300.000853482632
300.000854140351
300.000855416605
300.000857910574
300.000862874306
300.000872991347
300.000893981424
300.000937522462
300.001025658677
300.001194510571
300.001502511503
300.000617377912
300.000490575024
300.000420684288
300.000383660078
300.000365122697
300.000356122258
300.000351795099
300.000349696656
300.000348659342
300.000348136593
300.000347870085
300.000347734115
300.000347665431
300.000347631396
300.000347614998
300.000347607399
300.000347604075
300.000347602752
300.000347602338
300.000347602294
300.000347602357
300.000347602442
300.00034760252
300.000347602583
300.00034760262
300.000347602638
300.000347602632
300.000347602592
300.000347602524
300.000347602442
300.000347602378
300.000347602434
300.000347602894
300.000347604289
300.000347607699
300.000347615403
300.000347631954
300.000347666233
300.000347735274
300.000347871459
300.00034813676
300.000348652751
300.000349667573
300.000351709847
300.000355935747
300.000364859528
300.000383722982
300.00042265541
300.000498715318
300.000640375302
300.000254142504
300.000198402042
300.000168144715
300.000152350283
300.000144559956
300.00014083516
300.000139072238
300.000138230116
300.000137819136
300.0001376139
300.000137509789
300.000137456752
300.000137429937
300.00013741662
300.000137410188
300.000137407203
300.000137405898
300.000137405383
300.000137405228
300.000137405218
300.000137405247
300.000137405286
300.000137405321
300.000137405349
300.000137405366
300.000137405373
300.000137405371
300.000137405353
300.000137405324
300.000137405288
300.000137405259
300.000137405279
300.000137405458
300.000137406012
300.000137407372
300.00013741044
300.000137417006
300.000137430545
300.000137457701
300.000137511091
300.000137614952
300.000137817289
300.000138217583
300.000139031761
300.000140741386
300.000144414039
300.000152320124
300.00016894353
300.000202025994
300.000264837387
300.000101650138
300.000077974162
300.000065296111
300.000058767117
300.000055591505
300.000054095041
300.000053397349
300.000053068942
300.000052910693
300.000052832381
300.000052792851
300.00005277274
300.000052762559
300.00005275749
300.000052755035
300.000052753892
300.000052753392
300.000052753196
300.000052753138
300.000052753135
300.000052753148
300.000052753164
300.000052753179
300.00005275319
300.000052753197
300.0000527532
300.000052753199
300.000052753192
300.00005275318
300.000052753165
300.000052753154
300.000052753161
300.000052753231
300.000052753447
300.000052753977
300.000052755169
300.000052757709
300.000052762921
300.000052773325
300.000052793699
300.000052833249
300.000052910374
300.000053063765
300.000053378932
300.000054050194
300.000055516367
300.000058728473
300.000065603205
300.000079526324
300.000106436389
300.000039559624
300.000029822356
300.000024671251
300.000022051272
300.000020793391
300.000020208686
300.000019939968
300.000019815275
300.000019755937
300.000019726836
300.000019712217
300.000019704787
300.00001970102
300.000019699138
300.000019698222
300.000019697794
300.000019697605
300.000019697531
300.000019697508
300.000019697507
300.000019697511
300.000019697517
300.000019697522
300.000019697527
300.000019697529
300.00001969753
300.00001969753
300.000019697527
300.000019697522
300.000019697517
300.000019697513
300.000019697517
300.000019697544
300.000019697628
300.000019697831
300.000019698285
300.000019699246
300.000019701206
300.000019705097
300.000019712681
300.000019727361
300.000019755994
300.000019813208
300.000019931895
300.000020188163
300.00002075695
300.000022024266
300.00002478297
300.000030463479
300.000041626161
300.000014999705
300.000011114889
300.000009082026
300.00000805977
300.000007574838
300.000007352298
300.000007251409
300.000007205233
300.000007183526
300.000007172973
300.000007167696
300.000007165015
300.000007163652
300.000007162967
300.000007162632
300.000007162473
300.000007162402
300.000007162373
300.000007162363
300.000007162361
300.000007162361
300.000007162363
300.000007162364
300.000007162365
300.000007162366
300.000007162366
300.000007162366
300.000007162365
300.000007162364
300.000007162362
300.000007162361
300.000007162364
300.000007162376
300.000007162409
300.000007162486
300.000007162657
300.000007163014
300.000007163737
300.000007165161
300.000007167921
300.000007173242
300.000007183616
300.000007204426
300.000007247983
300.000007343268
300.000007558038
300.000008044379
300.000009120282
300.000011370821
300.000015862497
300.000005548071
300.000004041998
300.00000326157
300.000002873197
300.000002690996
300.000002608376
300.000002571398
300.000002554693
300.000002546931
300.000002543189
300.000002541325
300.000002540376
300.000002539891
300.000002539645
300.000002539523
300.000002539464
300.000002539436
300.000002539423
300.000002539417
300.000002539415
300.000002539414
300.000002539413
300.000002539413
300.000002539413
300.000002539412
300.000002539412
300.000002539412
300.000002539412
300.000002539412
300.000002539412
300.000002539413
300.000002539415
300.000002539421
300.000002539435
300.000002539465
300.00000253953
300.000002539662
300.000002539925
300.000002540437
300.000002541422
300.000002543311
300.000002546986
300.000002554381
300.000002569983
300.000002604539
300.000002683583
300.000002865373
300.000003273771
300.000004140926
300.000005897108
300.000002004262
300.000001436018
300.000001144176
300.000001000337
300.000000933543
300.000000903588
300.000000890339
300.000000884426
300.000000881708
300.000000880406
300.000000879758
300.000000879427
300.000000879255
300.000000879166
300.00000087912
300.000000879096
300.000000879084
300.000000879077
300.000000879073
300.00000087907
300.000000879068
300.000000879067
300.000000879066
300.000000879065
300.000000879064
300.000000879064
300.000000879064
300.000000879064
300.000000879065
300.000000879066
300.000000879067
300.000000879069
300.000000879073
300.00000087908
300.000000879093
300.000000879118
300.000000879168
300.000000879264
300.000000879447
300.000000879794
300.000000880453
300.000000881731
300.000000884302
300.000000889766
300.000000902007
300.000000930397
300.000000996659
300.000001147723
300.000001473109
300.00000214133
300.000000708042
300.000000499093
300.000000392679
300.000000340707
300.000000316801
300.000000306186
300.000000301541
300.000000299489
300.000000298553
300.000000298106
300.000000297882
300.000000297765
300.000000297703
300.000000297668
300.000000297649
300.000000297638
300.000000297631
300.000000297626
300.000000297622
300.00000029762
300.000000297617
300.000000297616
300.000000297614
300.000000297613
300.000000297613
300.000000297612
300.000000297613
300.000000297613
300.000000297614
300.000000297615
300.000000297616
300.000000297618
300.000000297621
300.000000297626
300.000000297632
300.000000297644
300.000000297664
300.000000297701
300.000000297768
300.00000029789
300.000000298119
300.000000298557
300.000000299436
300.00000030131
300.00000030555
300.000000315509
300.000000339078
300.000000393573
300.000000512604
300.000000760381
300.000000244966
300.000000169996
300.000000132146
300.000000113832
300.000000105482
300.000000101807
300.000000100211
300.00000009951
300.00000009919
300.000000099036
300.000000098957
300.000000098913
300.000000098888
300.000000098873
300.000000098863
300.000000098856
300.00000009885
300.000000098846
300.000000098843
300.00000009884
300.000000098838
300.000000098836
300.000000098835
300.000000098834
300.000000098833
300.000000098833
300.000000098833
300.000000098833
300.000000098834
300.000000098835
300.000000098837
300.000000098839
300.000000098841
300.000000098845
300.00000009885
300.000000098856
300.000000098866
300.000000098882
300.000000098909
300.000000098954
300.000000099035
300.000000099185
300.000000099483
300.000000100116
300.000000101554
300.000000104966
300.000000113144
300.000000132313
300.000000174784
300.000000264429
300.000000083205
300.000000056935
300.000000043818
300.000000037544
300.000000034709
300.000000033468
300.000000032931
300.000000032693
300.000000032582
300.000000032526
300.000000032495
300.000000032476
300.000000032464
300.000000032455
300.000000032448
300.000000032442
300.000000032438
300.000000032434
300.00000003243
300.000000032428
300.000000032425
300.000000032424
300.000000032422
300.000000032421
300.00000003242
300.00000003242
300.00000003242
300.000000032421
300.000000032421
300.000000032422
300.000000032424
300.000000032426
300.000000032429
300.000000032432
300.000000032436
300.000000032441
300.000000032447
300.000000032456
300.000000032469
300.000000032488
300.000000032519
300.000000032573
300.000000032676
300.000000032888
300.000000033367
300.000000034507
300.000000037265
300.00000004382
300.000000058588
300.000000090262
300.000000027896
300.000000018905
300.000000014503
300.000000012439
300.000000011517
300.000000011113
300.000000010934
300.000000010852
300.000000010811
300.000000010787
300.000000010772
300.000000010761
300.000000010752
300.000000010746
300.00000001074
300.000000010735
300.00000001073
300.000000010727
300.000000010723
300.000000010721
300.000000010718
300.000000010717
300.000000010715
300.000000010714
300.000000010713
300.000000010713
300.000000010713
300.000000010714
300.000000010714
300.000000010715
300.000000010717
300.000000010719
300.000000010722
300.000000010725
300.000000010728
300.000000010733
300.000000010738
300.000000010744
300.000000010753
300.000000010763
300.000000010778
300.0000000108
300.000000010838
300.000000010911
300.000000011069
300.000000011437
300.000000012329
300.000000014485
300.000000019462
300.000000030394
300.000000009369
300.000000006369
300.00000000497
300.000000004346
300.000000004073
300.000000003951
300.000000003892
300.000000003861
300.000000003842
300.000000003829
300.000000003819
300.00000000381
300.000000003803
300.000000003797
300.000000003791
300.000000003786
300.000000003782
300.000000003779
300.000000003775
300.000000003773
300.000000003771
300.000000003769
300.000000003767
300.000000003766
300.000000003766
300.000000003765
300.000000003765
300.000000003766
300.000000003767
300.000000003768
300.000000003769
300.000000003771
300.000000003774
300.000000003777
300.00000000378
300.000000003784
300.000000003789
300.000000003795
300.000000003802
300.000000003809
300.000000003819
300.000000003831
300.000000003849
300.000000003876
300.000000003928
300.00000000404
300.000000004304
300.000000004958
300.000000006553
300.000000010233
300.000000003284
300.000000002317
300.00000000193
300.000000001789
300.000000001732
300.000000001702
300.000000001682
300.000000001667
300.000000001655
300.000000001645
300.000000001637
300.000000001629
300.000000001622
300.000000001616
300.000000001611
300.000000001606
300.000000001602
300.000000001599
300.000000001595
300.000000001593
300.000000001591
300.000000001589
300.000000001587
300.000000001586
300.000000001586
300.000000001585
300.000000001585
300.000000001586
300.000000001587
300.000000001588
300.000000001589
300.000000001591
300.000000001594
300.000000001597
300.0000000016
300.000000001604
300.000000001609
300.000000001614
300.00000000162
300.000000001627
300.000000001635
300.000000001644
300.000000001655
300.000000001669
300.000000001687
300.000000001716
300.000000001773
300.000000001925
300.000000002377
300.000000003576
300.000000001325
300.000000001033
300.000000000981
300.000000000997
300.00000000101
300.000000001009
300.000000001001
300.000000000991
300.000000000982
300.000000000973
300.000000000964
300.000000000957
300.00000000095
300.000000000945
300.000000000939
300.000000000935
300.000000000931
300.000000000927
300.000000000924
300.000000000921
300.000000000919
300.000000000918
300.000000000916
300.000000000915
300.000000000915
300.000000000914
300.000000000914
300.000000000915
300.000000000915
300.000000000917
300.000000000918
300.00000000092
300.000000000923
300.000000000925
300.000000000929
300.000000000933
300.000000000937
300.000000000943
300.000000000949
300.000000000955
300.000000000963
300.000000000971
300.00000000098
300.00000000099
300.000000000998
300.000000001
300.000000000991
300.00000000098
300.000000001053
300.000000001421
300.000000000707
300.000000000635
300.000000000691
300.000000000758
300.000000000792
300.0000000008
300.000000000795
300.000000000786
300.000000000777
300.000000000768
300.00000000076
300.000000000753
300.000000000746
300.000000000741
300.000000000735
300.000000000731
300.000000000727
300.000000000724
300.000000000721
300.000000000718
300.000000000716
300.000000000714
300.000000000713
300.000000000712
300.000000000711
300.000000000711
300.000000000711
300.000000000711
300.000000000712
300.000000000713
300.000000000715
300.000000000717
300.000000000719
300.000000000722
300.000000000725
300.000000000729
300.000000000734
300.000000000739
300.000000000745
300.000000000751
300.000000000759
300.000000000767
300.000000000776
300.000000000784
300.00000000079
300.000000000784
300.000000000755
300.000000000692
300.000000000643
300.000000000737
300.000000000518
300.000000000516
300.000000000606
300.000000000688
300.000000000728
300.000000000737
300.000000000734
300.000000000725
300.000000000716
300.000000000707
300.000000000699
300.000000000691
300.000000000685
300.000000000679
300.000000000674
300.00000000067
300.000000000666
300.000000000662
300.000000000659
300.000000000657
300.000000000655
300.000000000653
300.000000000652
300.000000000651
300.00000000065
300.00000000065
300.00000000065
300.000000000651
300.000000000651
300.000000000652
300.000000000654
300.000000000656
300.000000000658
300.000000000661
300.000000000664
300.000000000668
300.000000000672
300.000000000678
300.000000000683
300.00000000069
300.000000000697
300.000000000706
300.000000000715
300.000000000723
300.000000000728
300.000000000721
300.000000000686
300.000000000608
300.00000000052
300.000000000527
300.000000000464
300.000000000485
300.000000000584
300.000000000669
300.00000000071
300.000000000719
300.000000000715
300.000000000706
300.000000000696
300.000000000687
300.000000000679
300.000000000672
300.000000000665
300.00000000066
300.000000000655
300.00000000065
300.000000000647
300.000000000643
300.000000000641
300.000000000638
300.000000000636
300.000000000635
300.000000000633
300.000000000632
300.000000000632
300.000000000632
300.000000000632
300.000000000632
300.000000000633
300.000000000634
300.000000000635
300.000000000637
300.000000000639
300.000000000642
300.000000000645
300.000000000649
300.000000000653
300.000000000658
300.000000000664
300.000000000671
300.000000000678
300.000000000687
300.000000000696
300.000000000705
300.000000000711
300.000000000704
300.000000000668
300.000000000587
300.000000000488
300.000000000466
300.000000000452
300.00000000048
300.000000000581
300.000000000666
300.000000000706
300.000000000714
300.000000000709
300.0000000007
300.00000000069
300.00000000068
300.000000000672
300.000000000665
300.000000000658
300.000000000653
300.000000000648
300.000000000644
300.00000000064
300.000000000637
300.000000000634
300.000000000632
300.00000000063
300.000000000628
300.000000000627
300.000000000626
300.000000000626
300.000000000626
300.000000000626
300.000000000626
300.000000000627
300.000000000628
300.000000000629
300.000000000631
300.000000000633
300.000000000636
300.000000000639
300.000000000642
300.000000000647
300.000000000652
300.000000000658
300.000000000664
300.000000000672
300.00000000068
300.00000000069
300.0000000007
300.000000000706
300.000000000701
300.000000000666
300.000000000585
300.000000000483
300.000000000453
300.000000000455
300.000000000485
300.000000000585
300.000000000668
300.000000000706
300.000000000713
300.000000000707
300.000000000696
300.000000000686
300.000000000677
300.000000000668
300.000000000661
300.000000000655
300.000000000649
300.000000000644
300.00000000064
300.000000000637
300.000000000634
300.000000000631
300.000000000629
300.000000000627
300.000000000626
300.000000000625
300.000000000624
300.000000000623
300.000000000623
300.000000000623
300.000000000623
300.000000000624
300.000000000625
300.000000000626
300.000000000628
300.00000000063
300.000000000633
300.000000000636
300.000000000639