/*--------------------------------*- C++ -*----------------------------------*\
  =========                 |
  \\      /  F ield         | OpenFOAM: The Open Source CFD Toolbox
   \\    /   O peration     | Website:  https://openfoam.org
    \\  /    A nd           | Version:  10
     \\/     M anipulation  |
\*---------------------------------------------------------------------------*/
FoamFile
{
    format      ascii;
    class       volVectorField;
    location    "8.8";
    object      U;
}
// * * * * * * * * * * * * * * * * * * * * * * * * * * * * * * * * * * * * * //

dimensions      [0 1 -1 0 0 0 0];

internalField   nonuniform List<vector> 
2500
(
(-1.17018850882768e-06 -1.27669104400794e-06 1.70268931219503e-25)
(-3.17604640931976e-06 -1.79140651023245e-06 2.10543783346438e-24)
(-3.6419093463912e-06 -1.99907557792146e-06 2.11531217588878e-25)
(-3.18223233044381e-06 -2.10546753118065e-06 -1.06171921482777e-25)
(-2.39661107197746e-06 -2.12629598703401e-06 -7.02121848584213e-25)
(-1.70104180784463e-06 -2.1154924863549e-06 -7.54061453695859e-25)
(-1.16850826592418e-06 -2.09623815237213e-06 -3.04399412051868e-25)
(-7.972898712559e-07 -2.07910824641479e-06 -2.90167233519392e-25)
(-5.43265613537852e-07 -2.06558208376437e-06 -4.50979257571513e-25)
(-3.72580617548119e-07 -2.05576369780836e-06 2.67269452686205e-24)
(-2.57430874028878e-07 -2.04887892607717e-06 1.44360057004983e-24)
(-1.7937841979227e-07 -2.044252292859e-06 3.01291635613861e-24)
(-1.25711062501878e-07 -2.04124221921687e-06 3.29122302639191e-24)
(-8.8124851533101e-08 -2.03932957420324e-06 1.13233138704137e-24)
(-6.11915722028039e-08 -2.03814087324121e-06 2.41521476473064e-24)
(-4.14030202585549e-08 -2.03741115926198e-06 7.49238764848554e-25)
(-2.65033959742687e-08 -2.03696212379832e-06 2.15552414671069e-24)
(-1.50224088061199e-08 -2.03668013197665e-06 2.83167960628543e-24)
(-5.97946694222999e-09 -2.03650674391463e-06 5.13776029063087e-25)
(1.28687088369649e-09 -2.03639427777685e-06 2.46211909868183e-24)
(7.241649558698e-09 -2.03632015216267e-06 -1.12250091874076e-26)
(1.22237659572904e-08 -2.03627702149428e-06 -2.32016536938595e-25)
(1.64903626411959e-08 -2.03625089448311e-06 2.89433896584998e-24)
(2.02537660960612e-08 -2.03623551178981e-06 2.56862246876419e-25)
(2.36869907892345e-08 -2.03623800372156e-06 -1.44285751441853e-25)
(2.69525033345252e-08 -2.03624302817515e-06 2.7452379067904e-24)
(3.0206861633388e-08 -2.03626017803698e-06 1.0235502015883e-25)
(3.36066678158542e-08 -2.03629049978347e-06 8.94577964571192e-25)
(3.7329591088221e-08 -2.03633368247292e-06 2.56523196641577e-24)
(4.15826167552588e-08 -2.03640153410316e-06 -8.83521432288739e-26)
(4.66201795071344e-08 -2.03649314181707e-06 1.82710942873274e-25)
(5.27844313817214e-08 -2.03662395274793e-06 -2.07090393288376e-25)
(6.05383060270172e-08 -2.03681915983547e-06 7.01508326535026e-25)
(7.05348787186004e-08 -2.03712699887795e-06 7.06241839574552e-25)
(8.37564920902003e-08 -2.03759939084006e-06 -4.38731323419189e-26)
(1.01686454694147e-07 -2.03835942971923e-06 1.99152427657119e-24)
(1.26582494801056e-07 -2.03958199843999e-06 -2.66234003266368e-24)
(1.61963647700624e-07 -2.04150873030518e-06 -2.33103844663525e-25)
(2.13245057866544e-07 -2.0445344473599e-06 2.25242040183147e-26)
(2.88715282204999e-07 -2.04914958223761e-06 -1.42389250834619e-24)
(4.01079072279778e-07 -2.05599958607301e-06 -4.41650559915599e-24)
(5.68789628974103e-07 -2.06575952861634e-06 -3.88529581280268e-24)
(8.19784367050961e-07 -2.07926141078198e-06 -2.16797175676052e-24)
(1.18857776135673e-06 -2.09651342524382e-06 -4.35659876446181e-24)
(1.72080417406217e-06 -2.11621506209394e-06 -4.46367852759307e-24)
(2.42140568022326e-06 -2.12790861563294e-06 -2.26406050212307e-24)
(3.2189804628823e-06 -2.10767358126733e-06 -4.03011890876541e-24)
(3.69183190648032e-06 -1.99955620342165e-06 -4.30309450234826e-24)
(3.21188407710662e-06 -1.78703411782726e-06 -1.75950044502757e-24)
(1.17477607477852e-06 -1.27532970098066e-06 -2.0804366790758e-24)
(-1.70068908788384e-06 -1.28174038208645e-06 -9.29020002320074e-26)
(-5.68518883765154e-06 -2.5440968869228e-06 -1.7525904148613e-25)
(-6.75501822750785e-06 -3.76976114508425e-06 -6.29216717703032e-26)
(-6.0629859980913e-06 -4.41466155557912e-06 -4.36230911568176e-25)
(-4.67087391507066e-06 -4.53476306128813e-06 -2.30571940792607e-24)
(-3.38376558559674e-06 -4.42528974601118e-06 -2.30493464519078e-24)
(-2.37195102589842e-06 -4.26863618082279e-06 -8.71250526906086e-25)
(-1.65199760470708e-06 -4.13334460647235e-06 -8.82415923403051e-25)
(-1.15135270482567e-06 -4.03267493850214e-06 -2.05543609239247e-24)
(-8.0914296487701e-07 -3.96233689484157e-06 1.48127700350302e-25)
(-5.73931169144322e-07 -3.91469741654342e-06 2.71288125862869e-24)
(-4.10866608539064e-07 -3.88303244269457e-06 2.74712374968036e-24)
(-2.95812961547368e-07 -3.86221459400464e-06 1.26778282811065e-24)
(-2.12901872688616e-07 -3.84859476333019e-06 1.93707362166998e-24)
(-1.51719536021301e-07 -3.83964432911521e-06 5.71151118708969e-25)
(-1.05451388607711e-07 -3.83369608047987e-06 7.7600024356139e-25)
(-6.96459527548051e-08 -3.8296739205349e-06 1.76254115879181e-24)
(-4.13523525902094e-08 -3.82688621530566e-06 6.83155463066205e-25)
(-1.85584497563867e-08 -3.82491787211209e-06 1.30488456155929e-25)
(1.40384901872502e-10 -3.82349558794814e-06 -3.74183593082891e-25)
(1.57485434531155e-08 -3.82246090472924e-06 -7.2470269996149e-25)
(2.90295581846729e-08 -3.82171155125701e-06 -1.43643906159475e-24)
(4.0580377031529e-08 -3.82118308863993e-06 9.44174582988994e-25)
(5.08857481852684e-08 -3.82082813933845e-06 -1.64782819514239e-26)
(6.0373408319772e-08 -3.82063560609855e-06 -1.27373912587684e-24)
(6.94334146039466e-08 -3.82058311420099e-06 6.25875915681238e-25)
(7.84351372649469e-08 -3.82068362128853e-06 -4.868831306235e-25)
(8.77687674047766e-08 -3.82093290205419e-06 2.00716548173374e-24)
(9.78516466369129e-08 -3.82136807887492e-06 1.4651744106821e-24)
(1.09174081082216e-07 -3.822026309763e-06 -9.81588781583976e-25)
(1.22325584372634e-07 -3.82296498797582e-06 5.59419411860104e-25)
(1.38060075517753e-07 -3.82428467494627e-06 -6.46948272368904e-25)
(1.57378778211266e-07 -3.8261638408848e-06 2.02326699597109e-24)
(1.81673764413039e-07 -3.82886228049559e-06 2.01731722013146e-24)
(2.12958237065428e-07 -3.83280548099822e-06 -8.16972408368717e-25)
(2.54195603793885e-07 -3.83868696964756e-06 4.96900830254213e-25)
(3.09858967826757e-07 -3.84757692923945e-06 -1.04034048732701e-24)
(3.8676325055882e-07 -3.86112978438693e-06 -5.46399824605956e-26)
(4.95317842271074e-07 -3.88185580327145e-06 4.95688856603997e-25)
(6.51401451201768e-07 -3.91339527594922e-06 -2.87517157116136e-24)
(8.79143057579057e-07 -3.96087319442207e-06 -4.21649095446074e-24)
(1.21349069518832e-06 -4.031090920037e-06 -4.22238144561682e-24)
(1.70621307720536e-06 -4.13197767188814e-06 -4.37086502705633e-24)
(2.4195199881228e-06 -4.26854989341441e-06 -4.30653685103851e-24)
(3.42894876035652e-06 -4.42870862603573e-06 -4.52486996634493e-24)
(4.72404363210308e-06 -4.54421601931556e-06 -4.63941658272195e-24)
(6.13803661109289e-06 -4.42790724117884e-06 -4.26952549802914e-24)
(6.85604683959847e-06 -3.77124115756567e-06 -4.17283830920144e-24)
(5.76468886374669e-06 -2.51869076429708e-06 -3.58577378231831e-24)
(1.71480131248495e-06 -1.26087452332171e-06 -1.87885900865156e-24)
(-1.23025599225607e-06 1.19744725100127e-06 -4.54608854405218e-25)
(-5.52718024906839e-06 -3.63848059497904e-07 -2.58408281288144e-24)
(-6.78857437076196e-06 -2.73069534859881e-06 -4.40336854492134e-25)
(-6.29467710220654e-06 -3.99683924600279e-06 -6.1133595569515e-25)
(-4.98905648029966e-06 -4.24457646710657e-06 -3.23376813310861e-24)
(-3.72054883602641e-06 -4.02304404478082e-06 -3.67368587049847e-24)
(-2.68622382902066e-06 -3.70307857061726e-06 -1.15224453790226e-24)
(-1.92916386682406e-06 -3.4251231365229e-06 -1.2162284221246e-24)
(-1.38820764211445e-06 -3.21895421044516e-06 -3.75040246905377e-24)
(-1.00802386974667e-06 -3.07550495641793e-06 -2.52338765715617e-24)
(-7.38833384839034e-07 -2.97866423160439e-06 3.36423142166088e-24)
(-5.46175429838051e-07 -2.91416167878944e-06 1.34804621544102e-24)
(-4.05713046439802e-07 -2.87138691877977e-06 -1.2358295390141e-24)
(-3.01151668211122e-07 -2.84293135899844e-06 2.25831517709946e-24)
(-2.21583161528646e-07 -2.82379936923141e-06 -1.78692094973271e-24)
(-1.5972219303381e-07 -2.81071449086954e-06 1.63591419565665e-25)
(-1.1065831611534e-07 -2.80158073641736e-06 2.50093593036298e-25)
(-7.10337166544688e-08 -2.79506617719384e-06 -2.00500943905359e-24)
(-3.84960541954697e-08 -2.79031906118181e-06 -6.42164853799916e-25)
(-1.13471701799871e-08 -2.78680731905779e-06 -3.03288609257858e-24)
(1.16738417335401e-08 -2.78419945239199e-06 -1.40066518984639e-24)
(3.15454582451193e-08 -2.78226431168165e-06 -2.88050316051275e-24)
(4.9051836552885e-08 -2.78087576561139e-06 -6.45325805391142e-25)
(6.48505411644065e-08 -2.77992653605255e-06 -4.71035188469331e-25)
(7.95169087701632e-08 -2.7793784720418e-06 -2.83303949810265e-24)
(9.35853829308911e-08 -2.77921126617462e-06 -1.03548780917112e-24)
(1.07578863862835e-07 -2.77941758881277e-06 -1.50001998973239e-24)
(1.22024454554666e-07 -2.78002276623423e-06 2.96441631322514e-24)
(1.37491328814636e-07 -2.78107572203258e-06 1.58292890258584e-25)
(1.54642145185565e-07 -2.78266120787418e-06 -2.41977818907363e-24)
(1.74246352982655e-07 -2.78493083846322e-06 1.19196212282151e-24)
(1.97268904673647e-07 -2.78809787399731e-06 -1.392595555136e-24)
(2.24966539715807e-07 -2.79250237048695e-06 3.25761311934648e-24)
(2.59021755186858e-07 -2.79867719204012e-06 3.20226901790753e-24)
(3.01784385268214e-07 -2.80748448612208e-06 -2.14630284787779e-24)
(3.5662511272424e-07 -2.82025821101238e-06 -7.13175591732828e-25)
(4.28454960553006e-07 -2.83909466252846e-06 1.1065361695602e-25)
(5.24578935604508e-07 -2.86727768155373e-06 3.24633660499166e-25)
(6.55910428935513e-07 -2.90975933592895e-06 1.81049319608675e-24)
(8.38771136987804e-07 -2.9739700924014e-06 -4.17770844532764e-24)
(1.09752902341275e-06 -3.07054076168329e-06 -3.10678334063659e-24)
(1.46682806216082e-06 -3.21391489810738e-06 -3.18421508716921e-24)
(1.99686101013194e-06 -3.42077156901479e-06 -5.77608839407521e-24)
(2.74441552958075e-06 -3.70159539315332e-06 -3.29456240088849e-24)
(3.77382830550516e-06 -4.02891682497211e-06 -3.62616576456417e-24)
(5.04860205818049e-06 -4.26288708816841e-06 -6.16072631387558e-24)
(6.37649701835975e-06 -4.02350161970305e-06 -3.39175487163323e-24)
(6.90090698300744e-06 -2.73554987208149e-06 -3.07244934964011e-24)
(5.62749284893645e-06 -3.15483574385422e-07 -5.16899331464914e-24)
(1.25563687686048e-06 1.25089373864119e-06 -1.30566498584902e-24)
(-5.94290518398008e-07 3.62877758220858e-06 -4.89950059231084e-25)
(-3.94778298814066e-06 2.21496865273826e-06 -3.05687206851502e-24)
(-5.12105790963827e-06 -1.1233213758643e-06 -3.96047701141197e-25)
(-5.01225183760996e-06 -2.97486898540195e-06 -2.93558051258929e-25)
(-4.16543546687628e-06 -3.40247842195751e-06 -1.59567117150979e-24)
(-3.25824454664166e-06 -3.13610246535551e-06 -2.31614583695668e-24)
(-2.46500175043741e-06 -2.70790783528543e-06 -8.33396188859531e-25)
(-1.85346709720067e-06 -2.32433547910642e-06 -9.21090669167568e-25)
(-1.39427190500946e-06 -2.03558945694839e-06 -2.71628393421336e-24)
(-1.0559878064024e-06 -1.83228532674864e-06 -3.01704876663831e-24)
(-8.05100169042501e-07 -1.6934688269338e-06 2.01762302048516e-24)
(-6.17353789344279e-07 -1.59971770351254e-06 -6.31163214459276e-25)
(-4.74654609254521e-07 -1.53648912028161e-06 -2.2550130144976e-24)
(-3.64372989238377e-07 -1.49355221906206e-06 1.01131324398854e-24)
(-2.77682850373737e-07 -1.46402050619618e-06 -2.20808498780183e-24)
(-2.0839932871985e-07 -1.44334812403117e-06 -1.26825915496115e-25)
(-1.52164102700395e-07 -1.4285743612989e-06 -1.35186105907026e-24)
(-1.05844953199983e-07 -1.41780768914369e-06 -2.56686183126507e-24)
(-6.71547030932733e-08 -1.40981200013764e-06 -7.19196120226547e-25)
(-3.4381287683346e-08 -1.40381687949202e-06 -2.93288834159054e-24)
(-6.1982643171473e-09 -1.39929460904284e-06 -1.18818195413101e-24)
(1.84467585381742e-08 -1.39591396554633e-06 -2.01988679050155e-24)
(4.04220402835964e-08 -1.39345624191544e-06 -1.77583274698492e-24)
(6.04646029462285e-08 -1.39177816471852e-06 -4.51532321810033e-25)
(7.92274974334447e-08 -1.39079889698668e-06 -1.77597294706198e-24)
(9.73345527183188e-08 -1.39047473066528e-06 -2.0083448097671e-24)
(1.15379249962861e-07 -1.39080557192607e-06 -1.00618613158377e-24)
(1.33974321861991e-07 -1.3918400718197e-06 1.61564278162301e-24)
(1.53772087628594e-07 -1.39364904765419e-06 -1.50673409902605e-24)
(1.75503184767471e-07 -1.39637361753871e-06 -1.63123541148485e-24)
(2.00022735251977e-07 -1.40024105182269e-06 4.43967788074968e-25)
(2.28378222538486e-07 -1.40558372600116e-06 -8.32148595458568e-25)
(2.61879934342202e-07 -1.41290507692123e-06 2.13164876385813e-24)
(3.02224849852565e-07 -1.42300639668293e-06 2.10021435828191e-24)
(3.51697167317649e-07 -1.43712731593386e-06 -1.35073907633248e-24)
(4.13423335239894e-07 -1.45716973214776e-06 -1.71501515470142e-24)
(4.91758476078571e-07 -1.48608784428943e-06 1.52203437061886e-24)
(5.92901910933996e-07 -1.52842660184122e-06 4.09008221178052e-25)
(7.25691221751516e-07 -1.59107507127137e-06 5.73550939951273e-25)
(9.02796543023163e-07 -1.68427726980626e-06 -3.35052268685608e-24)
(1.14236276549331e-06 -1.82264824687909e-06 -8.8474411563514e-25)
(1.46886101885273e-06 -2.02588845732606e-06 -9.18390012119432e-25)
(1.91617440457475e-06 -2.31580485244041e-06 -4.30084586067867e-24)
(2.51694451520009e-06 -2.70382471922083e-06 -9.61855488096729e-25)
(3.30311287833117e-06 -3.14314959665635e-06 -1.60234409701658e-24)
(4.2126163622359e-06 -3.42849097908196e-06 -4.7195678007757e-24)
(5.07669939285689e-06 -3.01518072292582e-06 -1.37922474393864e-24)
(5.21437551323206e-06 -1.1359846048181e-06 -7.93623318912517e-25)
(4.04456843942203e-06 2.27944976272953e-06 -4.10672651541319e-24)
(6.26788091529201e-07 3.71229308434922e-06 1.1905911764252e-25)
(-4.5087793266763e-08 5.43643511671297e-06 -1.84905636237816e-25)
(-1.97072306745783e-06 4.4068196321646e-06 -1.48554614657939e-24)
(-2.92035687410889e-06 4.69136277235743e-07 5.19867095042994e-26)
(-3.19986545386236e-06 -1.83171248530653e-06 1.74628721348998e-25)
(-2.91071279959766e-06 -2.46842880054673e-06 1.6409945068257e-25)
(-2.47061454615035e-06 -2.24323295918597e-06 -1.11971814053133e-24)
(-2.00901018409484e-06 -1.78817970316654e-06 -3.39560831313016e-25)
(-1.6105066322225e-06 -1.35865260666737e-06 -3.94325072050585e-25)
(-1.2815034433572e-06 -1.02618496862926e-06 -1.49503743676335e-24)
(-1.01921379845772e-06 -7.86813220786495e-07 -1.3432580271162e-24)
(-8.10861131547597e-07 -6.19953050672109e-07 1.58338000357024e-24)
(-6.4550642145886e-07 -5.04837734263547e-07 3.9103267879825e-25)
(-5.1345983884223e-07 -4.25419136225089e-07 -7.17931391900988e-25)
(-4.07163606198182e-07 -3.70224363049284e-07 7.96786547914725e-25)
(-3.20801847584452e-07 -3.31362653609359e-07 -9.91549821700594e-25)
(-2.49923733637153e-07 -3.03549094160469e-07 2.17304434492611e-25)
(-1.91138618046456e-07 -2.832613068454e-07 -1.20259864058462e-25)
(-1.41845764280173e-07 -2.68218059066171e-07 -8.93696084665492e-25)
(-1.00044895398704e-07 -2.56890966662943e-07 -5.49444491662671e-26)
(-6.41539012925564e-08 -2.48293582747274e-07 -1.28716553350395e-24)
(-3.29007430245861e-08 -2.41750464497458e-07 -4.56441108404173e-25)
(-5.25439890694372e-09 -2.36834359079265e-07 -9.89072254991724e-25)
(1.96614215415377e-08 -2.33232934160384e-07 -6.42569014348115e-25)
(4.26083666629526e-08 -2.30781847368356e-07 -8.12850025173525e-27)
(6.42728028705633e-08 -2.29344193289293e-07 -7.62737479501797e-25)
(8.52987371923827e-08 -2.28865446331314e-07 -7.92769781378246e-25)
(1.0631141689679e-07 -2.29362465740837e-07 -4.4801345158183e-25)
(1.27953973820238e-07 -2.30874313854511e-07 1.02784277287511e-24)
(1.50906976535227e-07 -2.33522544783312e-07 -5.36553908093459e-25)
(1.75924167771592e-07 -2.37487002208302e-07 -9.7587270145896e-25)
(2.03864648264939e-07 -2.43069341505544e-07 1.88899031532465e-25)
(2.3575926452632e-07 -2.50695309499779e-07 -6.41320001009421e-25)
(2.72861749852842e-07 -2.6103490595866e-07 1.24407512562831e-24)
(3.16729587107126e-07 -2.75093464872632e-07 1.23657510591409e-24)
(3.69362394082703e-07 -2.94395246609524e-07 -8.0208494078936e-25)
(4.33350644819783e-07 -3.21251752363194e-07 -8.20359541863134e-25)
(5.12064824978474e-07 -3.59167592730464e-07 5.76902248472619e-25)
(6.09954747510067e-07 -4.13430602546524e-07 1.95328482140646e-25)
(7.32844827954241e-07 -4.91926508756452e-07 8.69356514397499e-26)
(8.88329774385317e-07 -6.06205975774825e-07 -3.1905731177997e-24)
(1.08613003418857e-06 -7.72386954171473e-07 -1.08563517703026e-24)
(1.33736402469209e-06 -1.01163139734194e-06 -1.02579900044203e-24)
(1.65502827725504e-06 -1.34558586606215e-06 -3.6484489902571e-24)
(2.04268585905977e-06 -1.78074025121594e-06 -1.14370156903464e-24)
(2.49558977963562e-06 -2.24987796178319e-06 -1.39804296278805e-24)
(2.9333590986508e-06 -2.49957634090667e-06 -4.19441610345603e-24)
(3.23224149498725e-06 -1.88349859489486e-06 -1.23092180232393e-24)
(2.97566732309686e-06 4.45595849046719e-07 -1.01620285227986e-24)
(2.04299798995663e-06 4.4778071068497e-06 -4.00801820489539e-24)
(7.64047579651804e-08 5.54188570007911e-06 -3.69216738021382e-25)
(3.18846529394708e-07 6.45403461911314e-06 1.23984145417728e-25)
(-2.48544434594454e-07 5.88772336903859e-06 -8.64891874352807e-25)
(-9.43471558870332e-07 1.7522476599411e-06 4.68199443423237e-25)
(-1.50377957530361e-06 -8.183373706208e-07 3.8776304488759e-25)
(-1.68999219276373e-06 -1.6504484243582e-06 -2.04917145019793e-25)
(-1.66550991975687e-06 -1.52365679228702e-06 -6.59069746058234e-25)
(-1.51184419682953e-06 -1.10578998736824e-06 5.29914032294072e-26)
(-1.31871536754589e-06 -6.80846289317223e-07 5.46797249476412e-26)
(-1.12089202399772e-06 -3.39186920395808e-07 -8.07046618209762e-25)
(-9.39451552809284e-07 -8.5893796580894e-08 -5.18740634411101e-25)
(-7.79928854611547e-07 9.53333618802537e-08 1.64476754777742e-24)
(-6.43408709166103e-07 2.23571944796363e-07 8.55846667568751e-25)
(-5.28008630331516e-07 3.14268624391568e-07 -3.44438961575727e-26)
(-4.31011486890299e-07 3.78861745271499e-07 1.13101315848197e-24)
(-3.49557748502164e-07 4.25398625247991e-07 -3.11951645771496e-25)
(-2.80971892527268e-07 4.59427192690821e-07 6.38698629927274e-25)
(-2.22933244962282e-07 4.84701521388305e-07 6.18423453292759e-25)
(-1.73466456967674e-07 5.03736991661515e-07 4.20890024003414e-26)
(-1.30927540388911e-07 5.18237722775663e-07 5.92592415989161e-25)
(-9.39556486822136e-08 5.29356012019867e-07 -4.05457011578476e-25)
(-6.14063555347711e-08 5.37871932176813e-07 2.29429264457135e-25)
(-3.23113293003282e-08 5.44301807703897e-07 -3.54560720083576e-25)
(-5.84038746321971e-09 5.49009080610108e-07 1.88709313790877e-25)
(1.87466262163608e-08 5.52229775039842e-07 4.18759272943169e-25)
(4.21340995681726e-08 5.54106349731761e-07 -3.59687671307437e-25)
(6.49491310332691e-08 5.54694243295113e-07 6.20821725888335e-26)
(8.78177581558125e-08 5.54003025115588e-07 -2.22941192743071e-25)
(1.11381476757934e-07 5.51975060727979e-07 9.89656134752305e-25)
(1.36306099014631e-07 5.48456032973988e-07 -1.678704953477e-26)
(1.63320956284324e-07 5.43224611328613e-07 -7.36468845321182e-25)
(1.93250666465821e-07 5.35924596232725e-07 3.83378768575968e-25)
(2.27052824506913e-07 5.26033496005122e-07 -8.48414428870079e-25)
(2.65848970451464e-07 5.12771685815852e-07 8.79195319046238e-25)
(3.10990654531745e-07 4.94993996683869e-07 8.69258161759664e-25)
(3.64103563348996e-07 4.7097934274411e-07 -6.64800739254456e-25)
(4.27137633794639e-07 4.38198296289596e-07 -3.24188411840284e-25)
(5.02397512384092e-07 3.92898587353587e-07 1.54476062167683e-25)
(5.9254734429821e-07 3.29533716614711e-07 5.79947623343654e-27)
(7.00419336194418e-07 2.40056595258636e-07 2.88893179261132e-25)
(8.2875514885995e-07 1.12955888566278e-07 -1.96198597178844e-24)
(9.79434405138522e-07 -6.73463629613859e-08 -8.26232472937842e-25)
(1.15144382223075e-06 -3.20343298217841e-07 -8.23380934366584e-25)
(1.33927570307958e-06 -6.6352520063393e-07 -2.14899410408247e-24)
(1.52215145778362e-06 -1.09461746319692e-06 -8.55097755558392e-25)
(1.66602216273723e-06 -1.52826587288725e-06 -9.59805348755169e-25)
(1.68389237866389e-06 -1.68337888082981e-06 -2.466644898917e-24)
(1.49952382502696e-06 -8.77559860020123e-07 -9.16094659101603e-25)
(9.54036994437087e-07 1.71769385328678e-06 -7.98530329033835e-25)
(2.83934758718635e-07 5.956583662344e-06 -2.43408180550214e-24)
(-2.96212104606467e-07 6.57087329666153e-06 -2.57664491512063e-25)
(4.97688804881982e-07 6.71066925059632e-06 3.73239691045618e-25)
(9.28886882888417e-07 6.57490868499948e-06 2.716350804278e-25)
(4.62403291605333e-07 2.56573409760428e-06 7.6283703529369e-25)
(-2.34158981700802e-07 -1.07466002193774e-07 4.96127731111636e-25)
(-7.323986015194e-07 -1.09518500936237e-06 2.04935180221689e-25)
(-9.99154649523643e-07 -1.09148825422976e-06 1.32204876064642e-25)
(-1.07490028245756e-06 -7.48962860056172e-07 3.25524259467391e-25)
(-1.04259428652047e-06 -3.62135472419315e-07 3.70013598688503e-25)
(-9.53043660668966e-07 -3.56494771216438e-08 2.46533561456214e-25)
(-8.42098312444452e-07 2.15116039909599e-07 3.24590185107379e-25)
(-7.27934941908101e-07 4.00046090724909e-07 1.0925166924176e-24)
(-6.20307897206948e-07 5.34617851456924e-07 8.75554638099448e-25)
(-5.23256091438125e-07 6.32319341624087e-07 6.27495755671816e-25)
(-4.37873920778036e-07 7.03632200050535e-07 9.10445793639368e-25)
(-3.63750763668216e-07 7.561723194997e-07 4.58927223997402e-25)
(-2.99760266026949e-07 7.95349464615685e-07 8.98551807547882e-25)
(-2.44553304302806e-07 8.24933284087653e-07 9.36992596030298e-25)
(-1.96762612421694e-07 8.47528282258264e-07 8.41095059745807e-25)
(-1.55131960952529e-07 8.64931250008512e-07 1.02426191609265e-24)
(-1.18537639246281e-07 8.78382000157964e-07 5.95629656482339e-25)
(-8.59956361293819e-08 8.88733896125614e-07 7.16936398653055e-25)
(-5.6645791252772e-08 8.96583459090034e-07 4.99134174233282e-25)
(-2.9713479345562e-08 9.02334694712368e-07 6.26036265317932e-25)
(-4.50753650557093e-09 9.06257510287601e-07 6.84161156920087e-25)
(1.96073021858349e-08 9.08516177507249e-07 5.18059720859498e-25)
(4.32439463332294e-08 9.09184799601322e-07 4.88065839822579e-25)
(6.7005981083079e-08 9.08275420446832e-07 3.28353111130724e-25)
(9.14911553151632e-08 9.0570557493791e-07 5.15937749540266e-25)
(1.17335361242261e-07 9.01318657286356e-07 1.48271019988576e-25)
(1.45229756498424e-07 8.9483905143939e-07 -8.1445845158299e-26)
(1.75920747577476e-07 8.85876524319753e-07 2.07045025612655e-26)
(2.1026112766664e-07 8.73834584216091e-07 -3.64725992593586e-25)
(2.4922656890625e-07 8.57864861024303e-07 5.74820910773088e-26)
(2.9391431930866e-07 8.36719507595419e-07 1.49776843570086e-25)
(3.45560012481578e-07 8.08594431346908e-07 -1.13514617465884e-25)
(4.0550758642628e-07 7.70877249577573e-07 -1.08659104359426e-25)
(4.75071646270129e-07 7.19810671672066e-07 7.22872743237609e-26)
(5.5535885636064e-07 6.49975767190577e-07 -1.38954943529018e-25)
(6.46744267850156e-07 5.53740169827289e-07 -5.39787026881666e-26)
(7.48112889865499e-07 4.20575049740696e-07 -6.27656350089085e-25)
(8.55368352466484e-07 2.36832403108393e-07 -3.96551334068519e-25)
(9.58735286227161e-07 -1.33671638164539e-08 -3.94733581990404e-25)
(1.0398594978723e-06 -3.41114172197235e-07 -7.06101816038137e-25)
(1.0627859703244e-06 -7.33979543176144e-07 -3.62982322997313e-25)
(9.7669270095429e-07 -1.09277877520151e-06 -4.02741835027865e-25)
(7.00122848383432e-07 -1.12688041114767e-06 -8.12207310298951e-25)
(1.97138367209944e-07 -1.69920525073268e-07 -3.85885420530116e-25)
(-4.92532298466029e-07 2.52180529347151e-06 -2.36072106604649e-25)
(-9.31942208422686e-07 6.63502760025246e-06 -5.86002161069802e-25)
(-4.87275094716976e-07 6.82833156812441e-06 2.11861010650962e-25)
(5.43163628290977e-07 6.40603179574278e-06 4.88949686793999e-25)
(1.54215913714887e-06 6.62328804401803e-06 1.07859430272777e-24)
(1.25689995844103e-06 2.9477623186835e-06 8.62741518597504e-25)
(5.51739933678072e-07 3.00144729183465e-07 5.0966583435643e-25)
(-9.19253741725505e-08 -7.92610477640033e-07 4.03815161625846e-25)
(-5.17230821816193e-07 -9.09913876239529e-07 5.66307749345772e-25)
(-7.33774279197801e-07 -6.5690555073304e-07 4.45183016001721e-25)
(-8.08996670380786e-07 -3.25050448491591e-07 4.96066176809487e-25)
(-7.9780669299167e-07 -2.78300849222103e-08 7.47555738919113e-25)
(-7.41665682668685e-07 2.09872134860935e-07 7.97740048943177e-25)
(-6.6533802243774e-07 3.91083614751123e-07 6.58198359506796e-25)
(-5.8355947380511e-07 5.26879101055022e-07 8.54275744287552e-25)
(-5.0415028820284e-07 6.28136615867983e-07 9.46027662664371e-25)
(-4.30827685418578e-07 7.03837141505604e-07 6.78553357270127e-25)
(-3.64988249987504e-07 7.60811880479077e-07 8.72899455594292e-25)
(-3.06711023695223e-07 8.0408443258548e-07 9.15767134782749e-25)
(-2.55461968350613e-07 8.37271219583284e-07 1.06736946689718e-24)
(-2.10419477781399e-07 8.62931930712473e-07 1.24747832732101e-24)
(-1.70687606059077e-07 8.82892161132756e-07 1.13421896203186e-24)
(-1.35395641896014e-07 8.98428195046067e-07 1.11214913413149e-24)
(-1.03719606964805e-07 9.10446084178098e-07 8.92726310972303e-25)
(-7.49074587491921e-08 9.19581824932324e-07 8.70340987601942e-25)
(-4.82811919356105e-08 9.2627912860465e-07 7.80285433250335e-25)
(-2.32078303267306e-08 9.30829623431877e-07 7.37330298440526e-25)
(9.11761061308693e-10 9.33417239230817e-07 8.48871171527991e-25)
(2.46398671239965e-08 9.34138418121742e-07 7.51149212409127e-25)
(4.85348944628108e-08 9.32988195292721e-07 5.48481768888426e-25)
(7.3165452745569e-08 9.29875263844182e-07 2.05014755973205e-25)
(9.91128384401075e-08 9.24640569066785e-07 2.86305628120525e-25)
(1.27001425366566e-07 9.16976849968336e-07 2.4782682812142e-25)
(1.57504778390518e-07 9.064501346763e-07 -1.38263888538196e-25)
(1.91356552118103e-07 8.92434964717798e-07 -1.36126610050105e-25)
(2.29357014516892e-07 8.74026357299777e-07 -3.59628567190662e-25)
(2.7236638018911e-07 8.49934194945809e-07 -2.51751473691717e-25)
(3.21255022126396e-07 8.18352156992111e-07 1.90021125429002e-25)
(3.76812259568797e-07 7.76692356176953e-07 1.49213828859624e-25)
(4.39538094105488e-07 7.2135554307296e-07 -7.67848033843376e-26)
(5.093143663879e-07 6.4732011912691e-07 -2.04853795796182e-25)
(5.84693642708326e-07 5.47744140835298e-07 -1.94426911275036e-25)
(6.61916710275536e-07 4.13584986636798e-07 1.24727601085966e-25)
(7.33060698602201e-07 2.33842238334306e-07 -1.93854986841436e-25)
(7.83275165830587e-07 -2.94135084280616e-09 -1.81925152752258e-25)
(7.87468175458748e-07 -3.00939420993653e-07 1.56534150421405e-25)
(7.0381000075558e-07 -6.38239505969862e-07 -1.48584696864112e-25)
(4.76917438304578e-07 -9.07138313529517e-07 -1.53530461331752e-25)
(4.00478866392185e-08 -8.21002117845246e-07 1.70554472845917e-25)
(-6.12671769639919e-07 2.37663683751598e-07 -1.32882128423571e-25)
(-1.31687980051751e-06 2.89646699021286e-06 -2.28251106878224e-27)
(-1.57650492267561e-06 6.66998132161777e-06 4.28331354533454e-25)
(-5.44263230652599e-07 6.51554569091044e-06 2.12243981402326e-25)
(5.12090527123034e-07 5.78944234027905e-06 4.88173859544458e-25)
(1.7169633919158e-06 6.28212581493673e-06 1.38164131411747e-24)
(1.56535131303978e-06 3.03308333857712e-06 8.08333237206645e-25)
(9.36685450519734e-07 4.9156526655655e-07 4.94216166923782e-25)
(2.75283836026756e-07 -6.58549169956463e-07 7.94273477830914e-25)
(-2.02852541986032e-07 -8.79142043480739e-07 9.29156589927725e-25)
(-4.86223353877492e-07 -7.13406107565984e-07 4.63830320592724e-25)
(-6.22568015234235e-07 -4.41100188884145e-07 4.98768052815703e-25)
(-6.62297753257295e-07 -1.79361827659869e-07 1.03470626096476e-24)
(-6.45566387834761e-07 3.94461518195698e-08 9.86856153695492e-25)
(-5.98860962057432e-07 2.12190132531984e-07 1.8403367251604e-25)
(-5.38848315036028e-07 3.45584336367641e-07 6.35055003166749e-25)
(-4.75293902856598e-07 4.47699585150215e-07 1.021175146884e-24)
(-4.13467524505675e-07 5.25839969431389e-07 2.95327430115001e-25)
(-3.55964073983976e-07 5.85863054670439e-07 9.9650209519152e-25)
(-3.03755961931444e-07 6.32251553303892e-07 7.71004353939295e-25)
(-2.56954954699105e-07 6.68336282354406e-07 9.09480300782109e-25)
(-2.15192996098499e-07 6.96570529457848e-07 1.28939063016926e-24)
(-1.77900441047322e-07 7.18722406190972e-07 1.02231315739645e-24)
(-1.44431430213844e-07 7.36082195997627e-07 1.25218476505966e-24)
(-1.14128322233401e-07 7.4957586979369e-07 8.54969283748877e-25)
(-8.636368408881e-08 7.59857533333378e-07 1.00888762325528e-24)
(-6.05354959440645e-08 7.67389445728254e-07 7.10381336364585e-25)
(-3.60814653442614e-08 7.72498044053743e-07 6.51259837810209e-25)
(-1.24624707882877e-08 7.75373252966553e-07 9.73645836730835e-25)
(1.08401265884487e-08 7.76108998291713e-07 7.32747955790495e-25)
(3.43361087862518e-08 7.7470940459491e-07 6.67711709245433e-25)
(5.85471419814402e-08 7.71083133785871e-07 -1.45054680407435e-25)
(8.40020404623752e-08 7.65042414154268e-07 2.41285326216036e-25)
(1.11254895521063e-07 7.56274637841069e-07 4.44078135021698e-25)
(1.40891561026187e-07 7.44326830913197e-07 -3.0300129170926e-25)
(1.73524940780205e-07 7.28538360501553e-07 1.27016089357295e-25)
(2.09794294342069e-07 7.07992803554937e-07 -5.97280538842458e-25)
(2.50332262562053e-07 6.8141380190473e-07 -5.8231797157202e-25)
(2.95675623309976e-07 6.47009130460985e-07 4.38870472894161e-25)
(3.46156194816197e-07 6.02348642459575e-07 2.13656256929135e-25)
(4.01630371245919e-07 5.44082673640041e-07 -7.94763322480859e-26)
(4.61083709487577e-07 4.67749103472058e-07 -2.15574030420242e-25)
(5.21854219425137e-07 3.67472174006119e-07 -3.3415044839451e-25)
(5.78606447205343e-07 2.35945318654431e-07 4.85151981818941e-25)
(6.21442663425606e-07 6.49532347743271e-08 -4.17683343238827e-27)
(6.33530022499232e-07 -1.52525417420372e-07 1.57114716942375e-26)