/*--------------------------------*- C++ -*----------------------------------*\
  =========                 |
  \\      /  F ield         | OpenFOAM: The Open Source CFD Toolbox
   \\    /   O peration     | Website:  https://openfoam.org
    \\  /    A nd           | Version:  10
     \\/     M anipulation  |
\*---------------------------------------------------------------------------*/
FoamFile
{
    format      ascii;
    class       volScalarField;
    location    "8.8";
    object      wallHeatFlux;
}
// * * * * * * * * * * * * * * * * * * * * * * * * * * * * * * * * * * * * * //

dimensions      [1 0 -3 0 0 0 0];

internalField   uniform 0;

boundaryField
{
    back
    {
        type            calculated;
        value           uniform 0;
    }
    bottom
    {
        type            calculated;
        value           nonuniform List<scalar> 
50
(
68.0048702404919
68.4622825021023
70.6311261071114
72.4509828678069
73.7009556282336
74.49910071619
74.9913696389143
75.2871702347136
75.4601152270615
75.5582720518053
75.611881265009
75.6402070037136
75.6546382744365
75.6616657965549
75.6649812857052
75.6664462701683
75.6671230519497
75.6673851210402
75.6674669777062
75.6675052482139
75.6675141257126
75.6675143577655
75.6675115522618
75.6675162482882
75.6675138973413
75.6675129602156
75.6675175222522
75.6675217975926
75.6675279727228
75.6675311937717
75.6675208111117
75.667491856432
75.6673716346837
75.6670690899798
75.6663535613153
75.664734984379
75.6612203747902
75.6538129305361
75.6389818442123
75.6100419110357
75.5557114650885
75.4571976363072
75.2843558369523
74.9896970314775
74.5001331200539
73.7042478146159
72.4525851459091
70.6228103652798
68.4455432195771
68.0241653016627
)
;
    }
    left
    {
        type            calculated;
        value           uniform 0;
    }
    front
    {
        type            calculated;
        value           uniform 0;
    }
    right
    {
        type            calculated;
        value           uniform 0;
    }
    top
    {
        type            calculated;
        value           uniform 0;
    }
}


// ************************************************************************* //
