/*--------------------------------*- C++ -*----------------------------------*\
  =========                 |
  \\      /  F ield         | OpenFOAM: The Open Source CFD Toolbox
   \\    /   O peration     | Website:  https://openfoam.org
    \\  /    A nd           | Version:  10
     \\/     M anipulation  |
\*---------------------------------------------------------------------------*/
FoamFile
{
    format      ascii;
    class       volScalarField;
    location    "5.6";
    object      alphat;
}
// * * * * * * * * * * * * * * * * * * * * * * * * * * * * * * * * * * * * * //

dimensions      [1 -1 -1 0 0 0 0];

internalField   nonuniform List<scalar> 
2500
(
1.05945390976043e-14
2.07145347566172e-13
8.79209959239255e-13
1.50529857227982e-12
2.01792845309975e-12
2.40101193530685e-12
2.66360245897273e-12
2.82931651139948e-12
2.92597300434461e-12
2.97829268596535e-12
3.00468335710761e-12
3.01713816310409e-12
3.02265884942824e-12
3.02496538524538e-12
3.02587646712551e-12
3.02621741600731e-12
3.02633825983449e-12
3.02637857456328e-12
3.026390918576e-12
3.02639406056915e-12
3.02639438846133e-12
3.02639396934892e-12
3.02639343940998e-12
3.02639297826251e-12
3.02639263379471e-12
3.02639242311288e-12
3.02639235891594e-12
3.02639237746029e-12
3.02639234957999e-12
3.02639205913777e-12
3.02639052051848e-12
3.02638488655286e-12
3.02636684733817e-12
3.02631305375202e-12
3.02616106311677e-12
3.02575188730548e-12
3.02470157005299e-12
3.02213462257469e-12
3.01617651290939e-12
3.00308358225879e-12
2.97593944966693e-12
2.92305028628559e-12
2.82658988965905e-12
2.66260796596472e-12
2.40386450014584e-12
2.02647262419915e-12
1.51956364890261e-12
8.95363091306042e-13
2.14308972296354e-13
1.12041898278728e-14
1.04864530659948e-12
5.37997460343353e-11
2.33182630110634e-10
3.99694474198856e-10
5.36450734611002e-10
6.39118514936273e-10
7.09894053884734e-10
7.5485178950664e-10
7.81264451439071e-10
7.95672367180106e-10
8.02998778510654e-10
8.0648517520686e-10
8.08043589203919e-10
8.08700212688072e-10
8.08961779937279e-10
8.09060499282536e-10
8.09095799349142e-10
8.09107693492546e-10
8.09111387004499e-10
8.09112358102064e-10
8.09112486184777e-10
8.09112385658545e-10
8.09112245773796e-10
8.09112122749548e-10
8.09112030316672e-10
8.0911197374302e-10
8.09111956453442e-10
8.09111961189409e-10
8.09111950829064e-10
8.0911185410355e-10
8.09111382737535e-10
8.09109704846762e-10
8.09104391352467e-10
8.09088681772946e-10
8.0904463454465e-10
8.08926927676863e-10
8.08627004863393e-10
8.07899433868404e-10
8.06223311892735e-10
8.0256768864935e-10
7.95045514395967e-10
7.80496626345551e-10
7.54150980014969e-10
7.09665795504716e-10
6.39909684622882e-10
5.38725573578673e-10
4.03438356021233e-10
2.37385753873755e-10
5.5614319221071e-11
1.10634779844533e-12
3.71834918539139e-12
9.66341430480601e-10
3.28597239609728e-07
5.6154574413196e-07
7.51455905931573e-07
8.93588550342378e-07
9.91534278522531e-07
1.05386798440138e-06
1.09062156623507e-06
1.11076808683471e-06
1.12107125954943e-06
1.12600503279019e-06
1.12822508426117e-06
1.12916692222991e-06
1.12954475659584e-06
1.12968839572309e-06
1.1297401568774e-06
1.12975775503579e-06
1.12976329156045e-06
1.12976478988285e-06
1.12976502297583e-06
1.12976490578156e-06
1.12976472224637e-06
1.12976455748462e-06
1.12976443259489e-06
1.12976435546371e-06
1.12976433080939e-06
1.12976433585496e-06
1.12976431711216e-06
1.12976415809725e-06
1.12976344838835e-06
1.12976097501902e-06
1.12975320937928e-06
1.12973039067663e-06
1.12966674322806e-06
1.12949749187747e-06
1.129068323017e-06
1.12803230634175e-06
1.12565736504856e-06
1.12050304489419e-06
1.10994776489852e-06
1.08962394985242e-06
1.05296454830095e-06
9.91246794697384e-07
8.94615593660286e-07
7.54389005998624e-07
5.66364990457023e-07
3.34003597861525e-07
9.95688040031502e-10
3.88934047570285e-12
6.57468245321939e-12
1.72066193331637e-09
5.85890526579091e-07
9.96105999914668e-07
1.3278167796241e-06
1.57468517404035e-06
1.74421623797403e-06
1.85192353594359e-06
1.91540850675456e-06
1.95023038082395e-06
1.96806280095223e-06
1.97661787488353e-06
1.98047598128988e-06
1.98211688230386e-06
1.98277699454594e-06
1.98302871764083e-06
1.98311974459985e-06
1.98315082669574e-06
1.9831606700827e-06
1.98316337245518e-06
1.98316382179659e-06
1.98316364117304e-06
1.98316333956248e-06
1.98316306330929e-06
1.98316285210426e-06
1.98316271967374e-06
1.98316267351935e-06
1.98316267672576e-06
1.98316264622965e-06
1.98316236922823e-06
1.98316114939733e-06
1.98315691771949e-06
1.98314362347262e-06
1.98310451302222e-06
1.98299527995955e-06
1.98270443240184e-06
1.98196606731688e-06
1.98018183432914e-06
1.97608821923548e-06
1.96719763088616e-06
1.9489799026896e-06
1.91388010215622e-06
1.85051474529049e-06
1.74369340191072e-06
1.5760755282863e-06
1.33199064059347e-06
1.00302755352479e-06
5.93630225911477e-07
1.76207463469708e-09
6.81236143240887e-12
9.35221575551684e-12
2.44894541990929e-09
8.30587568016592e-07
1.40561838781013e-06
1.8674879444326e-06
2.20964644861269e-06
2.44395853012353e-06
2.59262147584895e-06
2.68022497815657e-06
2.72830339783594e-06
2.75295322928834e-06
2.76479793861927e-06
2.77014999853982e-06
2.77243139667707e-06
2.77335148065944e-06
2.77370333118057e-06
2.77383098423061e-06
2.77387475682742e-06
2.77388871258654e-06
2.77389260261917e-06
2.77389329429743e-06
2.77389307975938e-06
2.77389268846801e-06
2.77389232246069e-06
2.77389203964582e-06
2.77389185841404e-06
2.77389178410445e-06
2.77389177744391e-06
2.77389173871526e-06
2.7738913497293e-06
2.77388967559126e-06
2.77388389381142e-06
2.77386572979998e-06
2.77381223838974e-06
2.77366263921887e-06
2.77326375918544e-06
2.7722498080831e-06
2.76979674330229e-06
2.76416284691216e-06
2.75191634201591e-06
2.72680280939361e-06
2.67838125929526e-06
2.59089135767871e-06
2.44322451758495e-06
2.21109059212901e-06
1.87210911394777e-06
1.41337042419345e-06
8.39269995147508e-07
2.49584775848744e-09
9.6255612189579e-12
1.1953540726915e-11
3.13077354466879e-09
1.057363858521e-06
1.78210810635299e-06
2.36094189385978e-06
2.78812835792414e-06
3.08001397776729e-06
3.26501707241732e-06
3.37402518728619e-06
3.43388667711793e-06
3.46461172939071e-06
3.4793978038856e-06
3.48609102056657e-06
3.48895005251802e-06
3.49010580825225e-06
3.49054896275113e-06
3.49071024957922e-06
3.49076578602634e-06
3.49078361380151e-06
3.49078866330844e-06
3.49078962323013e-06
3.49078940809946e-06
3.49078895652358e-06
3.49078852458583e-06
3.49078818651487e-06
3.49078796438773e-06
3.49078786041568e-06
3.4907878407881e-06
3.49078778041718e-06
3.49078728223783e-06
3.4907852041533e-06
3.49077806196304e-06
3.4907556473365e-06
3.49068960389533e-06
3.49050470464347e-06
3.4900111146426e-06
3.4887549467651e-06
3.48571264792888e-06
3.47871897250204e-06
3.46350463203792e-06
3.43228372244478e-06
3.37204801264282e-06
3.26313439036408e-06
3.07913131466675e-06
2.78945487616577e-06
2.36549451706991e-06
1.78983921833645e-06
1.06607507535449e-06
3.17894592467529e-09
1.22421900370918e-11
1.43228155781938e-11
3.75245228086394e-09
1.26259030862199e-06
2.12050174724995e-06
2.80245170156177e-06
3.30418606171896e-06
3.64640333623931e-06
3.86314783095703e-06
3.99086407359766e-06
4.06104285679933e-06
4.09710173201544e-06
4.11447900976768e-06
4.12235845192725e-06
4.12573071554366e-06
4.12709694120115e-06
4.12762211414916e-06
4.12781382824673e-06
4.12788011004472e-06
4.12790153180221e-06
4.12790769813264e-06
4.12790894890643e-06
4.12790876580553e-06
4.12790828362003e-06
4.12790780936925e-06
4.12790743243727e-06
4.12790717809566e-06
4.12790704688134e-06
4.12790700346865e-06
4.12790690424582e-06
4.1279063025715e-06
4.12790386745935e-06
4.12789553944572e-06
4.12786945404558e-06
4.12779259072696e-06
4.12757723214632e-06
4.12700175864203e-06
4.12553571867673e-06
4.12198181240307e-06
4.11380535734397e-06
4.09600559971003e-06
4.05945773863566e-06
3.98890687928761e-06
3.86126901570171e-06
3.6454686893182e-06
3.30534382909809e-06
2.80665883990812e-06
2.12771080431907e-06
1.27077746246432e-06
3.79926191256524e-09
1.46132765484845e-11
1.64283198511954e-11
4.30593740733197e-09
1.44428466143186e-06
2.41839730147497e-06
3.18968397238503e-06
3.75573359685183e-06
4.14128919948045e-06
4.38535795812925e-06
4.52919566515996e-06
4.60828329001602e-06
4.64896078981025e-06
4.66858955678404e-06
4.67750382869163e-06
4.6813258449533e-06
4.68287744583699e-06
4.68347527872938e-06
4.68369413940388e-06
4.68377010160678e-06
4.68379481353484e-06
4.68380203888621e-06
4.68380359539583e-06
4.68380347536534e-06
4.68380298966529e-06
4.68380249462899e-06
4.68380209397383e-06
4.68380181592655e-06
4.6838016600122e-06
4.68380158657226e-06
4.68380144146638e-06
4.6838007361025e-06
4.68379797962469e-06
4.6837886251682e-06
4.68375940329527e-06
4.68367332685618e-06
4.68343202648408e-06
4.68278670601556e-06
4.68114130178789e-06
4.67714934553657e-06
4.66795852046953e-06
4.64793850904979e-06
4.60681127413563e-06
4.52738554342403e-06
4.38362596445985e-06
4.14042427178881e-06
3.75676844434199e-06
3.19346407884776e-06
2.42486718474552e-06
1.45167816235422e-06
4.34994495355091e-09
1.67122797497604e-11
1.82572125877649e-11
4.7878695600717e-09
1.60185463747172e-06
2.6755516798751e-06
3.52297207640936e-06
4.14366477864054e-06
4.56599890005234e-06
4.83326266145314e-06
4.99080445415589e-06
5.07748200054924e-06
5.12210586281647e-06
5.14366513841536e-06
5.15347027026919e-06
5.15768121190507e-06
5.15939392624419e-06
5.16005527495024e-06
5.16029803341002e-06
5.16038260045666e-06
5.16041028409095e-06
5.16041849836994e-06
5.16042036702593e-06
5.16042033489847e-06
5.16041986842172e-06
5.16041937087885e-06
5.16041895953681e-06
5.16041866545413e-06
5.16041848732327e-06
5.16041838195201e-06
5.1604181861278e-06
5.1604173776542e-06
5.1604143307408e-06
5.16040409439547e-06
5.16037222120761e-06
5.16027839551213e-06
5.16001528622348e-06
5.15931117667084e-06
5.15751455172617e-06
5.15315266089749e-06
5.143103938446e-06
5.12120392561965e-06
5.07619559722775e-06
4.98924326658803e-06
4.83180391146746e-06
4.56533792182736e-06
4.14469075777944e-06
3.52638855575375e-06
2.6812789389939e-06
1.60839849729724e-06
4.82854222086199e-09
1.85304331752192e-11
1.981155997352e-11
5.19863368477958e-09
1.73580184694199e-06
2.89335871307866e-06
3.80462096835733e-06
4.47104038456568e-06
4.92413767439159e-06
5.21081735591388e-06
5.37984983361064e-06
5.47290689617519e-06
5.52085786568604e-06
5.54405052294338e-06
5.55461244716119e-06
5.5591552732883e-06
5.56100616380753e-06
5.56172229948329e-06
5.56198581624215e-06
5.56207792996625e-06
5.56210826150369e-06
5.56211738482178e-06
5.5621195625415e-06
5.56211963573746e-06
5.56211920600824e-06
5.5621187204964e-06
5.56211830898999e-06
5.56211800541004e-06
5.56211780777855e-06
5.5621176701502e-06
5.5621174221897e-06
5.56211651221287e-06
5.5621132047386e-06
5.56210221719877e-06
5.56206812849388e-06
5.56196786778821e-06
5.5616866682785e-06
5.56093375215274e-06
5.55901140032865e-06
5.55434147555058e-06
5.54357745245e-06
5.52010824893013e-06
5.47185791747003e-06
5.37861498349409e-06
5.20973799885521e-06
4.92381377600857e-06
4.47220954480887e-06
3.80783046220593e-06
2.89848387839755e-06
1.74158812767616e-06
5.23609255668828e-09
2.00728920347099e-11
2.11048035143658e-11
5.54150633618789e-09
1.84745392860329e-06
3.07440854125984e-06
4.03834398173352e-06
4.74244556838923e-06
5.22089767806442e-06
5.52359848810709e-06
5.70213119549362e-06
5.80047649752954e-06
5.85119417011621e-06
5.87575003912102e-06
5.88694615953033e-06
5.89176836637525e-06
5.89373615942124e-06
5.8944989131662e-06
5.89478021627098e-06
5.89487885794622e-06
5.89491151556272e-06
5.89492146030972e-06
5.89492393588932e-06
5.89492412498668e-06
5.89492374398171e-06
5.89492328112383e-06
5.89492287746442e-06
5.89492256973522e-06
5.89492235556896e-06
5.89492218688988e-06
5.89492188731933e-06
5.89492087995273e-06
5.89491734144986e-06
5.8949057207158e-06
5.89486980365435e-06
5.89476427151849e-06
5.89446827687805e-06
5.89367542120546e-06
5.89165005226091e-06
5.88672738512556e-06
5.87537573829774e-06
5.85061618204615e-06
5.79969807824234e-06
5.70127643360172e-06
5.52298096389093e-06
5.22103023622746e-06
4.74391999249357e-06
4.0415488893557e-06
3.0791528400827e-06
1.85266357734751e-06
5.57629556052888e-09
2.13552464946881e-11
2.21585556656889e-11
5.8218784934514e-09
1.93872786972547e-06
3.22211663971018e-06
4.22880245898688e-06
4.96347399647092e-06
5.46250924986414e-06
5.77823601208855e-06
5.96451003734214e-06
6.06717654833204e-06
6.12016243632448e-06
6.14584007539906e-06
6.1575602329769e-06
6.16261434706254e-06
6.1646796684832e-06
6.16548153742216e-06
6.16577786770318e-06
6.16588207650383e-06
6.16591674747242e-06
6.16592742162129e-06
6.16593017751993e-06
6.1659304871797e-06
6.16593016114519e-06
6.16592972797446e-06
6.1659293378758e-06
6.16592903025012e-06
6.16592880260012e-06
6.16592860517091e-06
6.16592825629087e-06
6.16592715825068e-06
6.16592341811665e-06
6.16591127025655e-06
6.16587386469696e-06
6.16576407631847e-06
6.16545616046937e-06
6.1646311125349e-06
6.16252261538585e-06
6.15739574311132e-06
6.14556878275059e-06
6.11976455769554e-06
6.066685262928e-06
5.96406667653541e-06
5.77813676584435e-06
5.46319383740584e-06
4.96540280405507e-06
4.2322114808555e-06
3.22672918400117e-06
1.94358072193526e-06
5.8547628044973e-09
2.24003951019471e-11
2.29996598702265e-11
6.04653009189688e-09
2.01191485737119e-06
3.340396714303e-06
4.38120687377023e-06
5.14028529655321e-06
5.65577272590177e-06
5.98193058987898e-06
6.17441908465608e-06
6.2805648357752e-06
6.33538324272714e-06
6.36197064923347e-06
6.37411760189397e-06
6.37936146290988e-06
6.38150698820821e-06
6.38234120886432e-06
6.38265005359879e-06
6.38275894148127e-06
6.38279532891187e-06
6.38280663834861e-06
6.38280965320453e-06
6.3828100849661e-06
6.3828098132188e-06
6.38280941354709e-06
6.38280904070016e-06
6.38280873643375e-06
6.38280849829932e-06
6.38280827518721e-06
6.38280788090088e-06
6.38280670104504e-06
6.38280278812751e-06
6.38279020766872e-06
6.38275160792914e-06
6.38263843505011e-06
6.382321062532e-06
6.38147047396444e-06
6.37929595827196e-06
6.37400672001017e-06
6.36180142981696e-06
6.33516499162744e-06
6.28036301692868e-06
6.17439789244916e-06
5.9823795020602e-06
5.6570746828171e-06
5.14278820388887e-06
4.38500568498745e-06
3.34511444685518e-06
2.01663081005822e-06
6.07833067055412e-09
2.3235737123777e-11
2.36575412875165e-11
6.22296267570452e-09
2.06948549873289e-06
3.43336969889849e-06
4.5009650076691e-06
5.27921620938783e-06
5.80764766595613e-06
6.14203016415781e-06
6.3394317779683e-06
6.44833685644698e-06
6.50461378176233e-06
6.53192813708325e-06
6.54441759070023e-06
6.54981443709733e-06
6.55202495967148e-06
6.5528855492959e-06
6.55320466415882e-06
6.55331742685477e-06
6.55335525534955e-06
6.55336710897862e-06
6.55337035527941e-06
6.55337089921794e-06
6.55337068623847e-06
6.55337032157602e-06
6.55336996801848e-06
6.55336966951491e-06
6.55336942377538e-06
6.55336917860783e-06
6.55336874406814e-06
6.55336749266206e-06
6.55336343466998e-06
6.55335050482605e-06
6.55331096189763e-06
6.55319514036498e-06
6.55287038692777e-06
6.55199986401228e-06
6.54977377406668e-06
6.54435755331484e-06
6.53185608036687e-06
6.50456760273508e-06
6.44841514351513e-06
6.3398256384666e-06
6.1430318988421e-06
5.80959964901106e-06
5.28237416253387e-06
4.5052976785012e-06
3.43839074779076e-06
2.07425765104639e-06
6.25443780430252e-09
2.38906964610611e-11
2.4161948440879e-11
6.35881985946203e-09
2.1139220833371e-06
3.50511588980125e-06
4.59338365701127e-06
5.3864513693813e-06
5.92490506436422e-06
6.26567127669601e-06
6.46689739221034e-06
6.57795754071077e-06
6.63537780778436e-06
6.66326433842223e-06
6.67602456082841e-06
6.68154292902333e-06
6.68380534949756e-06
6.68468711574336e-06
6.68501453477596e-06
6.6851304584925e-06
6.68516947824959e-06
6.68518179180905e-06
6.68518523901131e-06
6.68518588535633e-06
6.68518572923569e-06
6.68518539913305e-06
6.68518506561018e-06
6.68518477456715e-06
6.6851845239353e-06
6.68518426066908e-06
6.68518379182201e-06
6.68518247980557e-06
6.68517830270468e-06
6.68516509560384e-06
6.68512481996677e-06
6.68500695976365e-06
6.68467654109331e-06
6.68379071899679e-06
6.68152501314391e-06
6.67601114873784e-06
6.66328170043706e-06
6.63549094353639e-06
6.57829759263467e-06
6.46768463611632e-06
6.26720838749714e-06
5.9275083093502e-06
5.39030380666262e-06
4.59834413780413e-06
3.51058550461818e-06
2.11890134899627e-06
6.39059113210435e-09
2.43946507288896e-11
2.45411865591256e-11
6.46142584743786e-09
2.14758555174422e-06
3.55948020352346e-06
4.66343526830797e-06
5.46776613677714e-06
6.01385572125476e-06
6.3594988251298e-06
6.56365580589115e-06
6.67637324123353e-06
6.73467614401101e-06
6.76300623199451e-06
6.77597730614888e-06
6.78159076529272e-06
6.78389400975733e-06
6.78479253117204e-06
6.78512656532532e-06
6.78524502918954e-06
6.78528501847189e-06
6.78529771469943e-06
6.78530133340996e-06
6.78530207035479e-06
6.78530196649067e-06
6.78530166919028e-06
6.78530135551085e-06
6.7853010730736e-06
6.78530082005564e-06
6.78530054275892e-06
6.78530004589359e-06
6.78529868423701e-06
6.78529441172683e-06
6.78528098880923e-06
6.78524015387323e-06
6.78512075128792e-06
6.78478605837103e-06
6.78388869476815e-06
6.78159307809693e-06
6.7760054127044e-06
6.76310348666266e-06
6.73493242045215e-06
6.67695048154691e-06
6.5648039637633e-06
6.36153618192113e-06
6.01708427530301e-06
5.4723137040639e-06
4.66906726644023e-06
3.56548729414646e-06
2.15287513816743e-06
6.4939451808723e-09
2.47753394534452e-11
2.48208904230909e-11
6.53745794064291e-09
2.17262130321525e-06
3.59993597480104e-06
4.71559587542524e-06
5.52834866246223e-06
6.08016259701366e-06
6.42947254022458e-06
6.63584049977206e-06
6.74981274217959e-06
6.8087866027007e-06
6.8374553289201e-06
6.85058812603093e-06
6.85627488169653e-06
6.8586097617072e-06
6.859521343567e-06
6.85986056925895e-06
6.85998104385281e-06
6.86002181003565e-06
6.86003481906554e-06
6.86003858129669e-06
6.86003939646282e-06
6.86003933990682e-06
6.86003907290468e-06
6.8600387782639e-06
6.86003850515823e-06
6.86003825202016e-06
6.86003796466321e-06
6.86003744602024e-06
6.8600360452023e-06
6.86003169835602e-06
6.86001811099856e-06
6.85997685707464e-06
6.85985630837662e-06
6.85951844734649e-06
6.85861252912263e-06
6.85629472251799e-06
6.85065224612592e-06
6.83762209224063e-06
6.80916804920354e-06
6.75059897478604e-06
6.63731016105154e-06
6.43196248782518e-06
6.08396950434278e-06
5.5335597744284e-06
4.7218988619154e-06
3.60651756581483e-06
2.17827873649993e-06
6.57100680175846e-09
2.50577798331104e-11
2.50233157711227e-11
6.59275050759785e-09
2.19090304521604e-06
3.62950574439893e-06
4.75375243773025e-06
5.57269923018561e-06
6.12873527716496e-06
6.48075842467567e-06
6.68876812370846e-06
6.8036756965521e-06
6.86315176897475e-06
6.89207509766562e-06
6.90533006417599e-06
6.9110724708816e-06
6.91343150120782e-06
6.91435311271042e-06
6.91469635246489e-06
6.91481839506568e-06
6.91485977438387e-06
6.91487303492933e-06
6.91487691510871e-06
6.91487779669492e-06
6.91487778198725e-06
6.91487754235831e-06
6.91487726560225e-06
6.91487700225432e-06
6.91487675099839e-06
6.91487645729794e-06
6.91487592277168e-06
6.91487449240667e-06
6.91487008949255e-06
6.91485637987301e-06
6.914814818496e-06
6.91469343434249e-06
6.91435326834996e-06
6.91344112438669e-06
6.91110715125869e-06
6.90542469279971e-06
6.89230089660349e-06
6.86364000657495e-06
6.80464144127689e-06
6.69051658613859e-06
6.4836460651303e-06
6.13305964411678e-06
5.57851876321475e-06
4.76069136228653e-06
3.63665645179788e-06
2.19694716030416e-06
6.62746111462738e-09
2.5263659656815e-11
2.51670733427137e-11
6.6322130845058e-09
2.20400982417894e-06
3.65073162805446e-06
4.78117059527439e-06
5.60459699423836e-06
6.16369618623546e-06
6.51769455215799e-06
6.72690391917492e-06
6.84249773256674e-06
6.90234387236997e-06
6.93145568043854e-06
6.94480153247786e-06
6.95058555571088e-06
6.95296274651524e-06
6.95389194581407e-06
6.95423824334676e-06
6.95436149066103e-06
6.95440334671872e-06
6.95441680649628e-06
6.95442078216066e-06
6.95442171920785e-06
6.95442174077445e-06
6.95442152550348e-06
6.95442126533049e-06
6.95442101196295e-06
6.95442076431889e-06
6.95442046762491e-06
6.95441992255255e-06
6.95441847115762e-06
6.95441402763953e-06
6.95440022978125e-06
6.95435844816027e-06
6.9542364679746e-06
6.95389465877527e-06
6.95297807224449e-06
6.9506325454703e-06
6.94492146864854e-06
6.93173055178306e-06
6.9029212264095e-06
6.8436141687504e-06
6.7288883738721e-06
6.52092263099798e-06
6.16847017630224e-06
5.61095556567136e-06
4.78868710223149e-06
3.65841549419953e-06
2.21043030310819e-06
6.66810167037325e-09
2.54111312949651e-11
2.52671983715726e-11
6.6598365668916e-09
2.21322888692511e-06
3.66568422374716e-06
4.80050940695402e-06
5.62711919658115e-06
6.18840275524528e-06
6.54381493403138e-06
6.75388643876221e-06
6.8699755364967e-06
6.93008999069014e-06
6.95933911813462e-06
6.97275152605531e-06
6.97856619046613e-06
6.98095682937834e-06
6.98189168262575e-06
6.98224027475618e-06
6.98236443401917e-06
6.98240665537833e-06
6.98242027070972e-06
6.98242432258994e-06
6.98242530540392e-06
6.98242535810477e-06
6.98242516433558e-06
6.98242491945029e-06
6.98242467615187e-06
6.98242443358431e-06
6.98242413681772e-06
6.98242358586234e-06
6.98242212075628e-06
6.98241764944386e-06
6.98240379037519e-06
6.98236185576475e-06
6.98223946145385e-06
6.9818965088128e-06
6.98097682369835e-06
6.97862321860899e-06
6.97289208614646e-06
6.9596540387763e-06
6.93074031521387e-06
6.87121599883081e-06
6.75606653288824e-06
6.54732796971795e-06
6.19355781143538e-06
5.63394184281491e-06
4.80853281741621e-06
3.67384678551929e-06
2.21999638139021e-06
6.69684051657498e-09
2.5514906047246e-11
2.5335441431334e-11
6.67875892139508e-09
2.21957619985213e-06
3.67599778025408e-06
4.81386806935925e-06
5.64269611399276e-06
6.20550771795884e-06
6.56191299776232e-06
6.77259275598678e-06
6.88903292167729e-06
6.94933850538654e-06
6.97868596136569e-06
6.9921462889551e-06
6.99798314211209e-06
7.00038357887729e-06
7.00132257852885e-06
7.00167286596309e-06
7.00179770520148e-06
7.00184020246367e-06
7.00185393760172e-06
7.00185804963744e-06
7.00185906998129e-06
7.00185914929118e-06
7.00185897443614e-06
7.00185874363055e-06
7.00185851040907e-06
7.00185827412088e-06
7.00185797974404e-06
7.00185742685156e-06
7.00185595414798e-06
7.00185146545488e-06
7.00183756640154e-06
7.00179553021212e-06
7.00167285877046e-06
7.00132913642777e-06
7.00040735466337e-06
6.99804825839134e-06
6.99230343997286e-06
6.97903312576945e-06
6.95004773602375e-06
6.89037394969978e-06
6.77493248034381e-06
6.56566047588292e-06
6.21097960435512e-06
5.64990961825445e-06
4.82232498243332e-06
3.68457692343303e-06
2.2266516728308e-06
6.71677200363221e-09
2.55865443655614e-11
2.53806762051795e-11
6.6913637171307e-09
2.22382685362762e-06
3.68291990740748e-06
4.8228502289188e-06
5.65318560087651e-06
6.21704030303334e-06
6.57412678607411e-06
6.78522590094298e-06
6.90190941935577e-06
6.96234824349054e-06
6.99176465490238e-06
7.00525879663328e-06
7.01111140884405e-06
7.01351885179071e-06
7.01446083812132e-06
7.01481235677341e-06
7.01493769491659e-06
7.01498039756762e-06
7.01499422389874e-06
7.01499838306397e-06
7.01499943414442e-06
7.01499953619668e-06
7.01499937796222e-06
7.01499916016208e-06
7.01499893697146e-06
7.01499870791731e-06
7.01499841793615e-06
7.01499786633805e-06
7.0149963910142e-06
7.01499189327845e-06
7.01497797083242e-06
7.01493587239239e-06
7.01481302714538e-06
7.01446881468949e-06
7.01354568212505e-06
7.01118301433473e-06
7.00542922517563e-06
6.99213762680631e-06
6.96310471949036e-06
6.90333141068322e-06
6.78769484331688e-06
6.57806540776754e-06
6.22277283653058e-06
5.66072414516109e-06
4.83167217045824e-06
3.69185473175489e-06
2.23116937006257e-06
6.73026607379578e-09
2.56348475967023e-11
2.54093387605731e-11
6.69938932825547e-09
2.2265487758479e-06
3.68736585002003e-06
4.82863357417639e-06
5.65995335911959e-06
6.22449345906062e-06
6.58203040829043e-06
6.79340870397071e-06
6.91025538361504e-06
6.97078420067226e-06
7.00024754292378e-06
7.01376488113148e-06
7.01962839262008e-06
7.02204072238317e-06
7.02298481072986e-06
7.0233372046896e-06
7.02346290200724e-06
7.02350575522078e-06
7.02351965029379e-06
7.02352384627347e-06
7.02352492271028e-06
7.02352504434349e-06
7.02352490063855e-06
7.02352469490893e-06
7.02352448165327e-06
7.02352426054901e-06
7.02352397652462e-06
7.02352342876258e-06
7.02352195476128e-06
7.02351745458031e-06
7.0235035217854e-06
7.02346139168949e-06
7.02333845215589e-06
7.02299396277185e-06
7.02207004381726e-06
7.01970524814023e-06
7.01394601582836e-06
7.00064131400963e-06
6.97157881080028e-06
6.9117429326822e-06
6.79598277511605e-06
6.58612550778844e-06
6.23044101909168e-06
5.66776251275377e-06
4.83776258812513e-06
3.69660331974775e-06
2.23412146952699e-06
6.73907091491543e-09
2.56662748788568e-11
2.54258356580744e-11
6.70403207827571e-09
2.22813467212188e-06
3.68996956488473e-06
4.83203507935826e-06
5.66394804136503e-06
6.2289053977457e-06
6.58671952153288e-06
6.79827152754927e-06
6.91522092655701e-06
6.97580707572549e-06
7.00530068329827e-06
7.01883316766152e-06
7.02470388578184e-06
7.02711948819729e-06
7.02806500304229e-06
7.02841799978025e-06
7.02854394896368e-06
7.02858691052295e-06
7.02860085701857e-06
7.02860508181579e-06
7.02860617975956e-06
7.02860631865063e-06
7.02860618725162e-06
7.02860599277165e-06
7.02860578930877e-06
7.02860557663366e-06
7.02860529969643e-06
7.02860475766791e-06
7.0286032880046e-06
7.0285987905685e-06
7.02858485791521e-06
7.02854272099431e-06
7.02841975149116e-06
7.02807515601818e-06
7.02715089811539e-06
7.02478510711421e-06
7.01902317308754e-06
7.00571167282494e-06
6.97663328749438e-06
6.9167629442481e-06
6.80093330069851e-06
6.59094583932945e-06
6.23503443499135e-06
5.67198731661695e-06
4.84142746759639e-06
3.69946909390875e-06
2.23590895592914e-06
6.74440965149827e-09
2.56853284171498e-11
2.54328793059892e-11
6.70603186166265e-09
2.22882862063724e-06
3.69112608897045e-06
4.83356488291327e-06
5.66576317474687e-06
6.23092682870238e-06
6.58888185203021e-06
6.80052469120332e-06
6.9175293814094e-06
6.97814726401375e-06
7.00765809766374e-06
7.02119944299046e-06
7.02707449254853e-06
7.02949211570979e-06
7.03043853665916e-06
7.03079192902134e-06
7.03091805082507e-06
7.03096109147455e-06
7.03097507890323e-06
7.03097932861869e-06
7.03098044620666e-06
7.03098060114502e-06
7.03098048262061e-06
7.03098029918831e-06
7.03098010537175e-06
7.03097990102572e-06
7.03097963114435e-06
7.0309790949837e-06
7.03097763027252e-06
7.03097313763724e-06
7.0309592114632e-06
7.03091708641419e-06
7.03079414011676e-06
7.03044958407625e-06
7.02952536939188e-06
7.02715954296043e-06
7.02139720509285e-06
7.00808413058775e-06
6.97900110366813e-06
6.91911910922606e-06
6.80326353325618e-06
6.59322392148566e-06
6.23721672137939e-06
5.6740075765601e-06
4.84319353388195e-06
3.70086239092332e-06
2.2367868832825e-06
6.74706032736473e-09
2.56948684518433e-11
2.54317168343349e-11
6.70573096427098e-09
2.22874475641565e-06
3.69102161259446e-06
4.83346482606055e-06
5.66568151157958e-06
6.23086903019326e-06
6.58884750924273e-06
6.8005100550226e-06
6.91752948672874e-06
6.97815737258633e-06
7.00767444596109e-06
7.02121939774682e-06
7.02709639613344e-06
7.02951501365953e-06
7.03046192032802e-06
7.03081554499809e-06
7.03094177988171e-06
7.03098487995173e-06
7.03099890313148e-06
7.03100317734351e-06
7.03100431490763e-06
7.03100448685298e-06
7.03100438200184e-06
7.03100420983157e-06
7.03100402543779e-06
7.03100382876007e-06
7.03100356485136e-06
7.03100303314971e-06
7.03100157197496e-06
7.0309970837073e-06
7.03098316747975e-06
7.03094106986219e-06
7.03081819642429e-06
7.0304738200343e-06
7.02955001739955e-06
7.02718507322065e-06
7.02142449936623e-06
7.00811471045768e-06
6.97903735843575e-06
6.9191643950084e-06
6.80332194360529e-06
6.59329951725511e-06
6.2373121048843e-06
5.67412188405526e-06
4.84332008088137e-06
3.70098619089851e-06
2.23688208889838e-06
6.74741218843901e-09
2.5696334076551e-11
2.54222624666882e-11
6.70310882863113e-09
2.22787773877945e-06
3.68964941242655e-06
4.83172844907953e-06
5.66369782609457e-06
6.22872849022865e-06
6.58661478154916e-06
6.7982275089156e-06
6.91522238074973e-06
6.97583943022822e-06
7.00535231907623e-06
7.01889595143328e-06
7.02477269338747e-06
7.02719136748652e-06
7.02813838040794e-06
7.02849209136709e-06
7.0286183862259e-06
7.02866152786487e-06
7.02867558164985e-06
7.02867987954787e-06
7.02868103709379e-06
7.02868122613317e-06
7.02868113507532e-06
7.02868097404098e-06
7.0286807986914e-06
7.02868060903681e-06
7.02868035022193e-06
7.02867982198616e-06
7.02867836362948e-06
7.02867388045949e-06
7.02865997974851e-06
7.02861792934616e-06
7.02849518753167e-06
7.02815115109727e-06
7.02722817287685e-06
7.02486511904618e-06
7.01910865426302e-06
7.0058073348676e-06
6.97674652182465e-06
6.91690411755042e-06
6.80111502668512e-06
6.59118057508564e-06
6.23533006151625e-06
5.6723409577749e-06
4.84181829861485e-06
3.69985082106438e-06
2.23620194848764e-06
6.74549169897721e-09
2.56898349943448e-11
2.54031198263609e-11
6.69778650849228e-09
2.22610338989937e-06
3.68681035993957e-06
4.82810122360339e-06
5.65951897027538e-06
6.22418688443588e-06
6.58185009070849e-06
6.79333493383905e-06
6.91026160297247e-06
6.97084488178798e-06
7.0003422550231e-06
7.01387928724483e-06
7.01975344400573e-06
7.02217119976373e-06
7.02311793033134e-06
7.02347157974666e-06
7.02359788086575e-06
7.02364104547983e-06
7.0236551238042e-06
7.02365944369974e-06
7.02366062052075e-06
7.0236608260203e-06
7.02366074832177e-06
7.02366059797391e-06
7.02366043116889e-06
7.02366024798496e-06
7.02365999370374e-06
7.02365946852911e-06
7.02365801323481e-06
7.02365353754174e-06
7.02363966108976e-06
7.02359768459572e-06
7.02347514945014e-06
7.02313165253081e-06
7.02221000454421e-06
7.01985006460354e-06
7.01410052998072e-06
7.00081386648296e-06
6.97178246162473e-06
6.91199594500605e-06
6.79630726509496e-06
6.58654312680113e-06
6.23096511954114e-06
5.66838733023922e-06
4.83845084632348e-06
3.69727346939632e-06
2.23463429842237e-06
6.74096466878987e-09
2.56741815934201e-11
2.5371445190869e-11
6.68899275064966e-09
2.223169275063e-06
3.68209844670621e-06