/*--------------------------------*- C++ -*----------------------------------*\
  =========                 |
  \\      /  F ield         | OpenFOAM: The Open Source CFD Toolbox
   \\    /   O peration     | Website:  https://openfoam.org
    \\  /    A nd           | Version:  10
     \\/     M anipulation  |
\*---------------------------------------------------------------------------*/
FoamFile
{
    format      ascii;
    class       volScalarField;
    location    "5.6";
    object      h;
}
// * * * * * * * * * * * * * * * * * * * * * * * * * * * * * * * * * * * * * //

dimensions      [0 2 -2 0 0 0 0];

internalField   nonuniform List<scalar> 
2500
(
6556.16095927505
6546.94535690689
6532.01454373493
6522.20660440319
6516.73779430237
6513.85950403851
6512.3978529542
6511.68261891741
6511.3477265956
6511.19917917028
6511.13516904829
6511.1089540037
6511.09859050559
6511.09399901375
6511.09170534199
6511.0901124702
6511.08933778072
6511.08852778122
6511.08765800261
6511.0870476349
6511.08652437199
6511.08606744317
6511.08568918962
6511.085456271
6511.08521668569
6511.08500798824
6511.08492897421
6511.08489104524
6511.08490914473
6511.08500307045
6511.08517357633
6511.08549451131
6511.08589452997
6511.08642059532
6511.08710606596
6511.08819276135
6511.09030331858
6511.09487915042
6511.10664495101
6511.13480238255
6511.20197497401
6511.35664894896
6511.69776298348
6512.41691967734
6513.87546704307
6516.73275232543
6522.17856255377
6532.02585014331
6547.10241249164
6556.03392250018
5476.52152334619
5435.71986576795
5393.14187894448
5365.34611044458
5349.28344800739
5340.45548176526
5335.7665499858
5333.371278592
5332.20355708658
5331.66307524829
5331.42515755642
5331.32574144985
5331.28620003387
5331.27087655638
5331.26495928831
5331.26248465456
5331.26147474126
5331.26082748244
5331.2602631762
5331.25984653417
5331.25947978033
5331.25913708029
5331.25884361626
5331.25865100446
5331.25848071312
5331.25832886276
5331.25825470353
5331.25820529682
5331.25817233364
5331.25820343739
5331.25828442662
5331.25845098235
5331.25880965438
5331.25941381538
5331.26047549983
5331.26299496367
5331.26956768194
5331.28665727079
5331.33036867786
5331.43704657402
5331.68664539687
5332.2437651711
5333.42825843314
5335.82991780561
5340.49754578955
5349.26447542282
5365.2791573392
5393.23188892639
5436.32688141299
5476.21571818125
4417.58625348218
4352.7638829109
4295.00404188548
4258.32360210908
4237.28926673462
4225.76464138723
4219.6474604467
4216.51832196366
4214.98824080626
4214.27681552688
4213.96255803465
4213.83077876574
4213.77827031772
4213.75820230715
4213.75076475858
4213.74800841944
4213.74701004594
4213.74654261102
4213.74621945446
4213.7459837911
4213.74576521335
4213.74554009752
4213.74533567398
4213.7451993554
4213.74509306766
4213.74499585917
4213.74494243617
4213.74489812599
4213.74484827214
4213.74483871502
4213.74483896791
4213.74488872655
4213.74519133415
4213.74578235146
4213.74692904624
4213.74997218849
4213.75835356514
4213.78066617304
4213.83788669166
4213.97796808249
4214.30547700736
4215.03512999845
4216.58338905404
4219.71851803105
4225.81071709212
4237.2740277155
4258.29441885325
4295.28839241928
4353.98418021575
4418.43593931782
3524.86710872362
3453.5865244519
3397.8175217043
3363.75074875645
3344.84705609738
3334.80148774297
3329.60931977003
3327.00983128897
3325.75983896744
3325.1860573339
3324.93519975077
3324.83088001513
3324.78963097014
3324.77403884005
3324.76837481056
3324.76638148127
3324.76571806451
3324.76546354594
3324.76531821989
3324.76521445219
3324.76510715173
3324.76497797318
3324.76484891607
3324.76476222661
3324.76470382083
3324.76464971311
3324.76461784505
3324.76458615668
3324.76454122484
3324.76451806723
3324.76449270145
3324.76445688198
3324.76463884224
3324.76506057322
3324.76584501378
3324.76804517356
3324.77430766118
3324.79130691643
3324.83547920856
3324.94503083769
3325.20445884152
3325.79046462616
3327.05359268757
3329.65953828698
3334.83992737438
3344.85946360362
3363.81529712164
3398.30910663328
3455.26681162109
3527.23641704229
2861.47959465595
2798.7472873174
2754.33141300315
2728.23508166447
2714.23820381121
2707.03049584388
2703.40379159855
2701.62537837154
2700.78296796875
2700.40027831774
2700.23414804674
2700.16539389509
2700.13831444711
2700.12813574076
2700.1244853777
2700.12325206297
2700.12287986257
2700.12276847627
2700.12272201798
2700.12269219854
2700.12265413537
2700.12259219518
2700.12251895141
2700.12246937704
2700.12244267645
2700.12241816617
2700.12240240771
2700.12238321852
2700.12235170233
2700.12232854144
2700.122295528
2700.12223168893
2700.12232438002
2700.12257256312
2700.12302356495
2700.12437252333
2700.12830961634
2700.13914291683
2700.1675765386
2700.23875769775
2700.40895046969
2700.79765529116
2701.64687218141
2703.42924182469
2707.05205463809
2714.2575742631
2728.33843434715
2754.87274937736
2800.51117865972
2864.73557387124
2419.22735267158
2372.25436833234
2341.61261623446
2324.26342060187
2315.25714893124
2310.75731736113
2308.55045710731
2307.48896535716
2306.99270054037
2306.76907720195
2306.67243260145
2306.63252029342
2306.61682067866
2306.6109348146
2306.60884473215
2306.60816321414
2306.60798027667
2306.60794595772
2306.60794125233
2306.60794273609
2306.60794094524
2306.6079192934
2306.60788208497
2306.60785685178
2306.60784823675
2306.60784032739
2306.60783394612
2306.60782389975
2306.60780523131
2306.60778726317
2306.60775790793
2306.60769978591
2306.60773777816
2306.60786053932
2306.60808603097
2306.60882550721
2306.61102713192
2306.6171394971
2306.63330228253
2306.67402381575
2306.77204409259
2306.99777910773
2307.49642212836
2308.55899283646
2310.76399282703
2315.26879427675
2324.3528643551
2342.06625659634
2373.76529950083
2422.48815439433
2151.14069508441
2120.18138860934
2101.34687696306
2091.04642241196
2085.86051448872
2083.34189916973
2082.13619941539
2081.56655285231
2081.30328234331
2081.18539113672
2081.13456751627
2081.11358135822
2081.10532184242
2081.10222822789
2081.10113926035
2081.10079744497
2081.10072195647
2081.10072184124
2081.10073053072
2081.1007355759
2081.10074044822
2081.10073858032
2081.10072183599
2081.10071084285
2081.10071092444
2081.10070959215
2081.10070749876
2081.10070346659
2081.10069364635
2081.10068164662
2081.10066049713
2081.10061969567
2081.10062999277
2081.10067976777
2081.10077959618
2081.10115262733
2081.10227816045
2081.10541849992
2081.11376772303
2081.13488629239
2081.18593356283
2081.30418123651
2081.567692929
2082.13670443007
2083.34030590956
2085.86237820822
2091.10223871449
2101.65952984893
2121.28421521279
2153.80478101797
2001.7534601244
1983.39326864838
1972.88015032071
1967.3138743379
1964.59005670771
1963.30167107531
1962.69877689761
1962.41866218246
1962.29052672929
1962.23342730276
1962.20883564874
1962.19866803068
1962.19465910361
1962.19315768475
1962.19263365706
1962.19247748586
1962.19245085686
1962.19245737431
1962.19246728439
1962.19247395552
1962.19247787857
1962.19247904853
1962.19247397882
1962.1924707345
1962.19247347443
1962.19247420408
1962.19247353477
1962.19247184432
1962.1924670244
1962.19245985586
1962.19244682313
1962.19242444782
1962.19242189086
1962.19243557597
1962.19247752846
1962.19265300479
1962.19318727819
1962.19468213292
1962.19867159832
1962.20878126352
1962.23326602702
1962.29019051439
1962.41790569753
1962.69687295236
1963.29744882905
1964.5862733636
1967.34038791374
1973.06493476614
1984.09963355459
2003.62567385408
1924.53508840543
1914.583052126
1909.17875178199
1906.40272683667
1905.0796734491
1904.46902792201
1904.18934010117
1904.06143050072
1904.00346457395
1903.97773274644
1903.96664927837
1903.96205603614
1903.96024018315
1903.95955994054
1903.95932437202
1903.95925803031
1903.95925060385
1903.95925664736
1903.9592638202
1903.95926891229
1903.95927140296
1903.95927247024
1903.95927196341
1903.95927227845
1903.95927438634
1903.95927544422
1903.95927526009
1903.95927439494
1903.95927213834
1903.95926820769
1903.95926104873
1903.95924974114
1903.95924624706
1903.95924804277
1903.95926281884
1903.9593402383
1903.95957823765
1903.96024554396
1903.9620306718
1903.96655458149
1903.97751111593
1904.00302653242
1904.06055516814
1904.18746265866
1904.46514060617
1905.07451671476
1906.41171618889
1909.27477715189
1914.98852017224
1925.70236642422
1887.22502821796
1882.23566042906
1879.64926405901
1878.35783195131
1877.75723648492
1877.48628413718
1877.36466865165
1877.30988131552
1877.28526773843
1877.2743750742
1877.26967905699
1877.26772699203
1877.26695282133
1877.26666273594
1877.2665633747
1877.26653729864
1877.2665358279
1877.26653941631
1877.2665436626
1877.2665467919
1877.26654860977
1877.26654962409
1877.2665499021
1877.26655052621
1877.26655178551
1877.26655252407
1877.26655248653
1877.26655205114
1877.26655099973
1877.26654899832
1877.26654540472
1877.26654004615
1877.26653792126
1877.26653749528
1877.26654181839
1877.26657338348
1877.26667365625
1877.26695557406
1877.26771049767
1877.26962077394
1877.27423936635
1877.2849940067
1877.30932089392
1877.3634383868
1877.48362450947
1877.75297348235
1878.35900908577
1879.69381193274
1882.44755388957
1887.88404082055
1870.26303791148
1867.92776931481
1866.76535764429
1866.20014564802
1865.94321776746
1865.8297391308
1865.77976957304
1865.75758098642
1865.74769424163
1865.74333008691
1865.74144591943
1865.74065995377
1865.74034716541
1865.74022995265
1865.74019031169
1865.74018056004
1865.74018058569
1865.74018256715
1865.74018478819
1865.74018647214
1865.74018754747
1865.74018819675
1865.74018853624
1865.74018901037
1865.74018965758
1865.74019005359
1865.7401900442
1865.74018983561
1865.7401893604
1865.74018840494
1865.74018672842
1865.74018432104
1865.74018312781
1865.74018266777
1865.74018377936
1865.74019583807
1865.74023601782
1865.74034953644
1865.74065343765
1865.74142027326
1865.74326838173
1865.74756458601
1865.7572991376
1865.77910678098
1865.82820143073
1865.94041312125
1866.19893517819
1866.78395332653
1868.0298097021
1870.60492823102
1862.96630348495
1861.93810392901
1861.44403002149
1861.20968086101
1861.10539767922
1861.06023851241
1861.04070898781
1861.0321565955
1861.02837578005
1861.02671057338
1861.02599036355
1861.02568880253
1861.02556836148
1861.02552323191
1861.02550817001
1861.02550469585
1861.02550494628
1861.02550593157
1861.02550699045
1861.0255078122
1861.02550836906
1861.0255087236
1861.02550895084
1861.02550922036
1861.02550952012
1861.02550970357
1861.0255096999
1861.02550960583
1861.02550939599
1861.02550896497
1861.02550823042
1861.02550720238
1861.02550659409
1861.02550628411
1861.02550653497
1861.02551096655
1861.02552634453
1861.0255701562
1861.02568728338
1861.02598168111
1861.02668805504
1861.02832510696
1861.03203549864
1861.04039488755
1861.05944794978
1861.103804286
1861.2083109245
1861.45101802746
1861.98382024918
1863.13111059615
1859.98152047654
1859.55297908075
1859.35321861546
1859.26063620755
1859.22024960646
1859.20307890827
1859.19577870601
1859.19262420343
1859.19124028107
1859.1906319764
1859.19036836452
1859.19025755905
1859.19021314555
1859.19019650638
1859.19019103481
1859.19018985488
1859.19019002782
1859.19019047517
1859.190190943
1859.19019131321
1859.19019157503
1859.19019174863
1859.19019186998
1859.1901920008
1859.1901921289
1859.19019220597
1859.19019220459
1859.19019216394
1859.19019207348
1859.19019188954
1859.19019158529
1859.1901911674
1859.19019088509
1859.19019071644
1859.19019075897
1859.19019232505
1859.19019798639
1859.19021426701
1859.19025768937
1859.19036631422
1859.19062553863
1859.19122375948
1859.19257827853
1859.19564335808
1859.20270738784
1859.21943691276
1859.25969833368
1859.35555868864
1859.5721812938
1860.05598541305
1858.81554032904
1858.64556879207
1858.56837041971
1858.53335196061
1858.51835743472
1858.51209049014
1858.50946839522
1858.5083497841
1858.50786266484
1858.50764895596
1858.50755615517
1858.50751699609
1858.50750124442
1858.50749534392
1858.50749343154
1858.50749304669
1858.507493136
1858.50749332417
1858.50749351747
1858.50749367291
1858.50749378635
1858.50749386403
1858.50749392062
1858.50749397762
1858.50749402874
1858.50749405869
1858.50749405804
1858.50749404118
1858.50749400379
1858.50749392947
1858.50749380987
1858.50749364799
1858.50749352722
1858.50749344778
1858.50749344924
1858.50749398483
1858.5074959989
1858.5075018453
1858.50751738952
1858.50755606629
1858.50764779836
1858.50785839163
1858.50833419932
1858.5094142589
1858.51192805153
1858.51797669072
1858.5328290548
1858.56904650934
1858.65317785178
1858.8473002143
1858.37892549256
1858.31448158464
1858.28584994546
1858.27311701409
1858.26775860766
1858.26555438236
1858.26464584733
1858.26426296941
1858.26409743648
1858.26402494652
1858.26399340409
1858.26398004275
1858.26397464887
1858.26397262808
1858.26397198093
1858.2639718586
1858.26397189786
1858.26397197146
1858.26397204627
1858.26397210719
1858.26397215267
1858.26397218457
1858.26397220831
1858.26397223104
1858.26397225014
1858.26397226094
1858.26397226053
1858.26397225387
1858.26397223929
1858.26397221091
1858.26397216629
1858.26397210662
1858.26397205872
1858.26397202529
1858.26397202229
1858.2639722012
1858.26397289749
1858.26397493298
1858.26398032349
1858.26399365758
1858.26402507194
1858.26409676212
1858.26425822322
1858.26462543994
1858.26548746769
1858.26759224438
1858.27285982276
1858.28600219429
1858.31734081103
1858.39178689578
1858.22168023329
1858.19823295488
1858.18800680375
1858.18354088158
1858.18169152647
1858.18094190896
1858.18063721003
1858.18051028213
1858.18045578698
1858.18043196457
1858.18042157733
1858.18041715994
1858.18041536957
1858.18041469786
1858.18041448379
1858.1804144445
1858.1804144592
1858.18041448556
1858.18041451229
1858.18041453427
1858.18041455088
1858.18041456272
1858.18041457162
1858.18041457984
1858.18041458641
1858.18041458994
1858.18041458974
1858.18041458731
1858.18041458196
1858.18041457184
1858.18041455621
1858.18041453552
1858.18041451812
1858.18041450567
1858.18041450429
1858.18041456392
1858.18041479963
1858.18041548917
1858.18041730558
1858.18042176976
1858.18043221243
1858.18045588756
1858.18050899282
1858.18062986697
1858.18091568919
1858.18162298628
1858.18342527464
1858.18802145408
1858.19925614915
1858.22664965987
1858.16705317905
1858.1588389027
1858.15531132438
1858.15379598234
1858.15317776064
1858.15293056188
1858.15283136892
1858.15279049472
1858.15277306152
1858.15276545273
1858.1527621274
1858.15276070676
1858.15276012771
1858.15275990926
1858.15275983853
1858.15275982441
1858.15275982846
1858.15275983644
1858.15275984468
1858.1527598515
1858.15275985662
1858.15275986025
1858.15275986298
1858.15275986548
1858.1527598674
1858.15275986836
1858.15275986823
1858.15275986743
1858.15275986569
1858.15275986249
1858.15275985761
1858.15275985119
1858.15275984577
1858.15275984214
1858.15275984258
1858.15275986341
1858.15275994257
1858.15276017123
1858.15276076831
1858.15276222414
1858.15276560305
1858.15277320887
1858.15279018625
1858.15282881663
1858.15292071451
1858.15315091472
1858.15374755102
1858.1553012299
1858.15918884657
1858.16889286281
1858.14869926284
1858.14592025167
1858.14474201928
1858.14424335775
1858.1440426871
1858.14396344785
1858.14393202474
1858.1439192051
1858.14391377021
1858.14391140042
1858.14391036115
1858.14390991398
1858.14390972955
1858.14390965847
1858.14390963409
1858.14390962756
1858.14390962704
1858.14390962823
1858.14390962971
1858.14390963091
1858.1439096317
1858.14390963217
1858.14390963249
1858.14390963283
1858.14390963311
1858.14390963321
1858.14390963309
1858.14390963288
1858.14390963252
1858.14390963184
1858.14390963078
1858.1439096294
1858.1439096284
1858.14390962827
1858.14390962997
1858.14390963832
1858.14390966551
1858.14390974096
1858.14390993399
1858.14391039866
1858.14391146645
1858.14391385004
1858.1439191393
1858.14393115651
1858.14395987966
1858.14403262488
1858.14422421074
1858.14473314272
1858.14603497167
1858.14935413672
1858.14272120969
1858.14181092689
1858.14142906299
1858.14126958091
1858.14120619935
1858.14118145631
1858.1411717477
1858.14116782145
1858.14116616462
1858.14116544134
1858.1411651217
1858.14116498193
1858.14116492243
1858.14116489789
1858.14116488795
1858.14116488375
1858.14116488167
1858.14116488039
1858.14116487943
1858.14116487859
1858.14116487782
1858.14116487712
1858.14116487655
1858.14116487613
1858.14116487584
1858.14116487563
1858.14116487552
1858.14116487554
1858.14116487567
1858.14116487588
1858.14116487615
1858.1411648765
1858.14116487718
1858.14116487836
1858.14116488039
1858.14116488477
1858.14116489532
1858.14116492125
1858.14116498401
1858.14116513084
1858.14116546254
1858.14116619427
1858.14116780502
1858.14117145299
1858.14118020017
1858.14120256982
1858.14126237466
1858.14142426768
1858.14184705994
1858.14294606453
1858.14082966665
1858.14054033001
1858.14042002888
1858.1403703728
1858.14035085767
1858.14034331639
1858.14034038374
1858.14033920526
1858.1403387083
1858.14033848952
1858.14033839069
1858.14033834551
1858.14033832453
1858.14033831431
1858.14033830876
1858.14033830522
1858.14033830259
1858.14033830047
1858.14033829867
1858.14033829712
1858.1403382958
1858.14033829468
1858.14033829378
1858.1403382931
1858.14033829261
1858.14033829232
1858.14033829221
1858.14033829231
1858.14033829262
1858.14033829313
1858.14033829385
1858.14033829479
1858.14033829605
1858.14033829769
1858.14033829986
1858.14033830302
1858.14033830836
1858.1403383187
1858.14033834052
1858.140338388
1858.1403384911
1858.14033871328
1858.14033919546
1858.14034027992
1858.14034288199
1858.14034959001
1858.14036777301
1858.14041787329
1858.14055128362
1858.1409043378
1858.14024713008
1858.14015772123
1858.14012084254
1858.14010577438
1858.14009990814
1858.14009765981
1858.14009679043
1858.14009644105
1858.14009629198
1858.14009622422
1858.14009619158
1858.14009617483
1858.14009616544
1858.14009615952
1858.14009615527
1858.14009615191
1858.14009614909
1858.14009614667
1858.14009614459
1858.1400961428
1858.14009614128
1858.14009614002
1858.140096139
1858.14009613822
1858.14009613767
1858.14009613734
1858.14009613724
1858.14009613738
1858.14009613775
1858.14009613836
1858.14009613923
1858.14009614038
1858.14009614184
1858.14009614365
1858.14009614587
1858.14009614868
1858.14009615242
1858.14009615797
1858.14009616724
1858.1400961844
1858.14009621816
1858.14009628681
1858.14009643088
1858.14009674912
1858.14009750848
1858.14009947519
1858.14010486929
1858.14011997079
1858.14016091994
1858.140271169
1858.1400722151
1858.14004532333
1858.14003433104
1858.14002987696
1858.14002815365
1858.14002749571
1858.14002724045
1858.14002713581
1858.14002708888
1858.14002706538
1858.14002705216
1858.14002704378
1858.14002703781
1858.14002703315
1858.14002702927
1858.14002702595
1858.14002702306
1858.14002702053
1858.14002701835
1858.14002701647
1858.14002701489
1858.14002701357
1858.14002701251
1858.14002701169
1858.14002701112
1858.14002701079
1858.14002701069
1858.14002701084
1858.14002701123
1858.14002701189
1858.14002701281
1858.14002701403
1858.14002701556
1858.14002701743
1858.14002701969
1858.14002702239
1858.14002702567
1858.14002702978
1858.14002703528
1858.14002704339
1858.14002705657
1858.14002707997
1858.14002712496
1858.14002721936
1858.14002743916
1858.14002800571
1858.1400295699
1858.14003400264
1858.1400462221
1858.14007973085
1858.14002092842
1858.14001306113
1858.14000989752
1858.14000862232
1858.14000812772
1858.14000793714
1858.14000786083
1858.140007827
1858.14000780947
1858.14000779871
1858.14000779109
1858.14000778512
1858.14000778014
1858.14000777585
1858.14000777208
1858.14000776876
1858.14000776584
1858.14000776328
1858.14000776106
1858.14000775915
1858.14000775753
1858.1400077562
1858.14000775512
1858.14000775429
1858.14000775372
1858.14000775338
1858.14000775329
1858.14000775344
1858.14000775384
1858.14000775451
1858.14000775546
1858.14000775671
1858.14000775827
1858.14000776017
1858.14000776244
1858.14000776512
1858.14000776825
1858.14000777194
1858.14000777634
1858.14000778179
1858.14000778898
1858.14000779931
1858.14000781585
1858.14000784623
1858.14000791153
1858.1400080741
1858.14000851862
1858.14000977946
1858.14001330226
1858.1400232122
1858.1400062233
1858.14000400023
1858.1400031476
1858.1400028029
1858.14000266483
1858.14000260874
1858.14000258356
1858.14000256982
1858.14000256062
1858.14000255346
1858.14000254743
1858.14000254216
1858.14000253747
1858.14000253328
1858.14000252955
1858.14000252623
1858.1400025233
1858.14000252073
1858.14000251849
1858.14000251657
1858.14000251495
1858.1400025136
1858.14000251252
1858.1400025117
1858.14000251111
1858.14000251078
1858.14000251069
1858.14000251084
1858.14000251126
1858.14000251194
1858.14000251289
1858.14000251415
1858.14000251572
1858.14000251763
1858.14000251991
1858.14000252259
1858.14000252568
1858.14000252924
1858.14000253332
1858.140002538
1858.14000254347
1858.14000255008
1858.14000255862
1858.14000257105
1858.14000259302
1858.14000264157
1858.14000276609
1858.14000310584
1858.14000405996
1858.14000689622
1858.14000209511
1858.14000150728
1858.14000132142
1858.1400012432
1858.14000120644
1858.14000118828
1858.1400011774
1858.14000116927
1858.14000116237
1858.14000115622
1858.14000115064
1858.14000114557
1858.14000114097
1858.14000113682
1858.1400011331
1858.14000112978
1858.14000112685
1858.14000112428
1858.14000112205
1858.14000112013
1858.14000111851
1858.14000111716
1858.14000111608
1858.14000111525
1858.14000111467
1858.14000111434
1858.14000111425
1858.14000111441
1858.14000111483
1858.14000111551
1858.14000111648
1858.14000111773
1858.14000111931
1858.14000112123
1858.14000112351
1858.14000112618
1858.14000112926
1858.14000113278
1858.14000113676
1858.14000114122
1858.1400011462
1858.14000115178
1858.1400011581
1858.1400011656
1858.14000117568
1858.14000119274
1858.14000122779
1858.140001306
1858.14000151882
1858.14000228493
1858.14000095941
1858.14000083491
1858.14000083724
1858.14000083368
1858.14000082507
1858.14000081734
1858.14000081036
1858.14000080373
1858.14000079744
1858.14000079156
1858.14000078611
1858.1400007811
1858.14000077653
1858.14000077239
1858.14000076869
1858.14000076538
1858.14000076246
1858.1400007599
1858.14000075768
1858.14000075576
1858.14000075415
1858.14000075281
1858.14000075173
1858.14000075091
1858.14000075034
1858.14000075001
1858.14000074992
1858.14000075008
1858.1400007505
1858.14000075119
1858.14000075215
1858.14000075341
1858.14000075499
1858.1400007569
1858.14000075917
1858.14000076184
1858.14000076491
1858.14000076841
1858.14000077236
1858.14000077676
1858.14000078161
1858.14000078691
1858.14000079265
1858.14000079885
1858.14000080578
1858.14000081437
1858.14000082499
1858.14000083059
1858.1400008342
1858.14000100792
1858.14000065336
1858.14000065744
1858.14000071166
1858.14000072846
1858.14000072738
1858.14000072237
1858.14000071636
1858.14000071008
1858.14000070392
1858.14000069809
1858.14000069267
1858.14000068767
1858.14000068312
1858.140000679
1858.14000067531
1858.14000067203
1858.14000066912
1858.14000066658
1858.14000066437
1858.14000066247
1858.14000066086
1858.14000065953
1858.14000065847
1858.14000065765
1858.14000065709
1858.14000065676
1858.14000065668
1858.14000065685
1858.14000065727
1858.14000065795
1858.14000065891
1858.14000066016
1858.14000066173
1858.14000066364
1858.14000066591
1858.14000066856
1858.14000067162
1858.14000067511
1858.14000067905
1858.14000068343
1858.14000068826
1858.14000069351
1858.14000069913
1858.14000070505
1858.14000071123
1858.14000071768
1858.1400007219
1858.14000070792
1858.14000065384
1858.14000066156
1858.14000057311
1858.1400006122
1858.14000068024
1858.14000070225
1858.14000070297
1858.14000069852
1858.14000069264
1858.14000068635
1858.14000068018
1858.14000067433
1858.14000066889
1858.1400006639
1858.14000065936
1858.14000065526
1858.1400006516
1858.14000064834
1858.14000064546
1858.14000064294
1858.14000064075
1858.14000063887
1858.14000063728
1858.14000063596
1858.14000063491
1858.14000063411
1858.14000063355
1858.14000063323
1858.14000063315
1858.14000063332
1858.14000063374
1858.14000063442
1858.14000063537
1858.14000063662
1858.14000063818
1858.14000064007
1858.14000064233
1858.14000064497
1858.14000064802
1858.1400006515
1858.14000065542
1858.14000065981
1858.14000066465
1858.14000066992
1858.14000067557
1858.14000068151
1858.14000068763
1858.1400006937
1858.14000069647
1858.14000067754
1858.14000060807
1858.14000057016
1858.14000055341
1858.14000060188
1858.14000067326
1858.14000069627
1858.14000069716
1858.14000069261
1858.14000068659
1858.14000068019
1858.14000067392
1858.14000066802
1858.14000066256
1858.14000065757
1858.14000065305
1858.14000064897
1858.14000064534
1858.14000064211
1858.14000063926
1858.14000063677
1858.1400006346
1858.14000063275
1858.14000063119
1858.14000062989
1858.14000062886
1858.14000062807
1858.14000062752
1858.14000062721
1858.14000062714
1858.1400006273
1858.14000062772
1858.14000062839
1858.14000062934
1858.14000063058
1858.14000063212
1858.140000634
1858.14000063623
1858.14000063885
1858.14000064188
1858.14000064535
1858.14000064927
1858.14000065367
1858.14000065853
1858.14000066386
1858.14000066961
1858.14000067568
1858.14000068195
1858.14000068817
1858.14000069087
1858.14000067103
1858.1400005978
1858.14000054755
1858.1400005499
1858.14000060087
1858.14000067268
1858.14000069545
1858.14000069598
1858.14000069111
1858.14000068484
1858.14000067825
1858.14000067186
1858.14000066589
1858.1400006604
1858.14000065541
1858.1400006509
1858.14000064686
1858.14000064325
1858.14000064006
1858.14000063725
1858.1400006348
1858.14000063267
1858.14000063085
1858.14000062932
1858.14000062805
1858.14000062703
1858.14000062626
1858.14000062573
1858.14000062542
1858.14000062535
1858.14000062552
1858.14000062594
1858.1400006266
1858.14000062754
1858.14000062876
1858.14000063028
1858.14000063214
1858.14000063435
1858.14000063694
1858.14000063995
1858.1400006434
1858.14000064732
1858.14000065172
1858.14000065663
1858.14000066203
1858.14000066791
1858.14000067416
1858.1400006807
1858.14000068726
1858.14000069035
1858.14000067077
1858.14000059699
1858.14000054342
1858.14000055093
1858.14000060258
1858.14000067393
1858.14000069602
1858.14000069596
1858.14000069064
1858.14000068403
1858.14000067721
1858.14000067067
1858.14000066462
1858.14000065909
1858.14000065409
1858.14000064961
1858.1400006456
1858.14000064204
1858.1400006389
1858.14000063613
1858.14000063373
1858.14000063164
1858.14000062986
1858.14000062836
1858.14000062712
1858.14000062613
1858.14000062538
1858.14000062486
1858.14000062456
1858.1400006245
1858.14000062467
1858.14000062507
1858.14000062573
1858.14000062665
1858.14000062785
1858.14000062935
1858.14000063118
1858.14000063336
1858.14000063592
1858.1400006389
1858.14000064233
1858.14000064624
1858.14000065066
1858.14000065561
1858.14000066111
1858.14000066713
1858.14000067363
1858.1400006805
1858.14000068751
1858.1400006912
1858.14000067231
1858.14000059895
1858.14000054447
1858.14000055353
1858.14000060537
1858.14000067589
1858.14000069703
1858.14000069621
1858.14000069033
1858.14000068332
1858.14000067623
1858.14000066952
1858.14000066337
1858.14000065781
1858.14000065282
1858.14000064835
1858.14000064439
1858.14000064088
1858.1400006378
1858.14000063509
1858.14000063274
1858.1400006307
1858.14000062896
1858.1400006275
1858.14000062629
1858.14000062533
1858.1400006246
1858.1400006241
1858.14000062382
1858.14000062376
1858.14000062393
1858.14000062433
1858.14000062497
1858.14000062587
1858.14000062705
1858.14000062852
1858.14000063031
1858.14000063246
1858.14000063498
1858.14000063793
1858.14000064133
1858.14000064522
1858.14000064965
1858.14000065465
1858.14000066025
1858.14000066646
1858.14000067323
1858.1400006805
1858.14000068808
1858.14000069253
1858.14000067458
1858.14000060202
1858.14000054727
1858.14000055703
1858.1400006089
1858.14000067831
1858.14000069827
1858.14000069653
1858.14000068998
1858.1400006825
1858.1400006751
1858.14000066821
1858.14000066196
1858.14000065636
1858.14000065137
1858.14000064695
1858.14000064304
1858.14000063959
1858.14000063657
1858.14000063393
1858.14000063164
1858.14000062966
1858.14000062797
1858.14000062656
1858.14000062539
1858.14000062446
1858.14000062375
1858.14000062327
1858.140000623
1858.14000062295
1858.14000062311
1858.14000062351
1858.14000062414
1858.14000062501
1858.14000062616
1858.1400006276
1858.14000062935
1858.14000063145
1858.14000063393
1858.14000063684
1858.1400006402
1858.14000064407
1858.14000064851
1858.14000065355
1858.14000065926
1858.14000066566
1858.14000067274
1858.14000068049
1858.14000068873
1858.14000069411
1858.14000067734
1858.14000060584
1858.14000055102
1858.14000056133
1858.14000061316
1858.14000068118
1858.14000069969
1858.14000069683
1858.1400006895
1858.1400006815
1858.14000067376
1858.14000066666
1858.14000066031
1858.14000065468
1858.14000064972
1858.14000064534
1858.1400006415
1858.14000063813
1858.14000063518
1858.14000063261
1858.14000063039
1858.14000062848
1858.14000062685
1858.14000062548
1858.14000062436
1858.14000062346
1858.14000062279
1858.14000062232
1858.14000062207
1858.14000062202
1858.14000062218
1858.14000062257
1858.14000062318
1858.14000062403
1858.14000062515
1858.14000062655
1858.14000062825
1858.1400006303
1858.14000063273
1858.14000063558
1858.1400006389
1858.14000064274
1858.14000064717
1858.14000065225
1858.14000065807
1858.14000066467
1858.1400006721
1858.14000068038
1858.1400006894
1858.14000069589
1858.14000068056
1858.14000061042
1858.14000055561
1858.14000056657
1858.14000061826
1858.14000068452
1858.14000070126
1858.14000069708
1858.14000068885
1858.14000068026
1858.14000067216
1858.14000066486
1858.14000065841
1858.14000065277
1858.14000064784
1858.14000064353
1858.14000063976
1858.14000063648
1858.14000063362
1858.14000063114
1858.140000629
1858.14000062716
1858.14000062559
1858.14000062428
1858.1400006232
1858.14000062235
1858.1400006217
1858.14000062126
1858.14000062102
1858.14000062098
1858.14000062114
1858.14000062151
1858.1400006221
1858.14000062293
1858.14000062401
1858.14000062536
1858.14000062701
1858.140000629
1858.14000063137
1858.14000063415