/*--------------------------------*- C++ -*----------------------------------*\
  =========                 |
  \\      /  F ield         | OpenFOAM: The Open Source CFD Toolbox
   \\    /   O peration     | Website:  https://openfoam.org
    \\  /    A nd           | Version:  10
     \\/     M anipulation  |
\*---------------------------------------------------------------------------*/
FoamFile
{
    format      ascii;
    class       volScalarField;
    location    "5.6";
    object      k;
}
// * * * * * * * * * * * * * * * * * * * * * * * * * * * * * * * * * * * * * //

dimensions      [0 2 -2 0 0 0 0];

internalField   nonuniform List<scalar> 
2500
(
1.18572446743485e-09
2.31848380870064e-08
9.83979768869707e-08
1.68458535409637e-07
2.25820413109904e-07
2.68685940887696e-07
2.980688363506e-07
3.16611733439697e-07
3.27427379553463e-07
3.33281878390886e-07
3.36234973035612e-07
3.37628662144772e-07
3.38246427392029e-07
3.3850452805149e-07
3.38606476677967e-07
3.38644626580711e-07
3.38658147759735e-07
3.38662657288657e-07
3.38664036633149e-07
3.38664386858221e-07
3.38664422370908e-07
3.38664374446736e-07
3.38664314297819e-07
3.38664262181954e-07
3.38664223095086e-07
3.38664199050634e-07
3.38664191699108e-07
3.3866419369648e-07
3.38664190632295e-07
3.38664158357073e-07
3.38663986579159e-07
3.38663356874117e-07
3.38661339122406e-07
3.38655320597444e-07
3.38638313803206e-07
3.3859252784544e-07
3.38474997787393e-07
3.3818775580045e-07
3.37521044069187e-07
3.360559499025e-07
3.33018545401017e-07
3.27100330175713e-07
3.16306637146102e-07
2.97957576057922e-07
2.69005179009155e-07
2.267765571356e-07
1.70054917193082e-07
1.00205781433594e-07
2.39866502281098e-08
1.25395471284176e-09
2.91241733957857e-08
6.63905811854555e-07
2.87674347849002e-06
4.93007908440521e-06
6.61621813288189e-06
7.88199605890163e-06
8.75457345106011e-06
9.3088560680112e-06
9.63450402449882e-06
9.81214673500161e-06
9.90247979830403e-06
9.94546711530258e-06
9.96468268241264e-06
9.97277907036511e-06
9.97600429411834e-06
9.97722152535402e-06
9.97765677473869e-06
9.97780340927642e-06
9.9778489201989e-06
9.97786086835414e-06
9.97786242383365e-06
9.97786116171416e-06
9.97785941745416e-06
9.97785788771891e-06
9.97785673669324e-06
9.97785602908559e-06
9.97785581101074e-06
9.97785586617235e-06
9.97785573624451e-06
9.97785454546886e-06
9.97784873794458e-06
9.97782805732778e-06
9.9777625555337e-06
9.97756886673814e-06
9.97702575195729e-06
9.97557437217092e-06
9.97187619581901e-06
9.96290500833267e-06
9.94223815371826e-06
9.89716442437731e-06
9.80441796956008e-06
9.62503779306125e-06
9.30021714033922e-06
8.75176215611267e-06
7.89175542000367e-06
6.64427362068406e-06
4.97625625443446e-06
2.92859859356999e-06
6.86300949200066e-07
3.0726691178085e-08
1.02554247524484e-07
2.96009921328062e-06
1.44889503055643e-05
2.47544486940605e-05
3.31216118775575e-05
3.93833446244895e-05
4.36983699408481e-05
4.64445506384946e-05
4.80638171740449e-05
4.8951447282866e-05
4.94054049014737e-05
4.96227923163706e-05
4.97206122984451e-05
4.97621122977447e-05
4.97787609282156e-05
4.97850901656096e-05
4.9787370939577e-05
4.97881463327889e-05
4.97883902200754e-05
4.97884561734696e-05
4.97884663741162e-05
4.97884611355446e-05
4.97884529801297e-05
4.97884456743868e-05
4.97884401356406e-05
4.97884367045787e-05
4.97884356005165e-05
4.97884358083089e-05
4.97884349659363e-05
4.978842795502e-05
4.97883966783731e-05
4.97882876938793e-05
4.97879455632434e-05
4.97869401424013e-05
4.97841355909602e-05
4.97766777231581e-05
4.97577671032106e-05
4.97121174048385e-05
4.96074729974826e-05
4.93803687965621e-05
4.89153050032487e-05
4.80198669340712e-05
4.6404755589771e-05
4.36857205499622e-05
3.94286217169015e-05
3.32508895812699e-05
2.49668892522808e-05
1.47273622788774e-05
3.05001831385653e-06
1.07270887303527e-07
1.8026974218525e-07
5.23958305533099e-06
2.56814900260954e-05
4.36527481932275e-05
5.8182176566959e-05
6.89948594352268e-05
7.6420245192757e-05
8.11378873944571e-05
8.39186465080771e-05
8.54439526022584e-05
8.62250879169867e-05
8.65998445362737e-05
8.67688527646057e-05
8.68407351740649e-05
8.68696528382521e-05
8.68806802153593e-05
8.6884667918083e-05
8.68860295442864e-05
8.68864607204207e-05
8.68865790574655e-05
8.68865986824273e-05
8.68865906947347e-05
8.68865774064134e-05
8.68865652533663e-05
8.68865559664479e-05
8.68865501332736e-05
8.68865480928021e-05
8.68865482150345e-05
8.68865468530878e-05
8.68865347037194e-05
8.68864812457327e-05
8.68862958263682e-05
8.68857134816888e-05
8.68840002121732e-05
8.68792149309331e-05
8.68664735469871e-05
8.68341278032751e-05
8.67559665215329e-05
8.65766418214861e-05
8.61871885404754e-05
8.53891767371595e-05
8.38517003931143e-05
8.10761878171162e-05
7.63973632465792e-05
6.90557953634115e-05
5.83650712772938e-05
4.39560929193902e-05
2.60208307264202e-05
5.36574828918825e-06
1.86789530048365e-07
2.5530465758417e-07
7.42507022420738e-06
3.62528148665908e-05
6.13407004379532e-05
8.14889788355874e-05
9.64146748105341e-05
0.000106635978282446
0.000113121180113889
0.000116942841359825
0.000119040284254522
0.000120115664136954
0.000120632412471819
0.000120865909464428
0.000120965442227879
0.000121005583982171
0.000121020934772737
0.000121026504173072
0.000121028413949374
0.000121029022823281
0.000121029192527416
0.000121029222675833
0.000121029213265511
0.000121029196134113
0.000121029180124857
0.000121029167763737
0.000121029159836597
0.000121029156581647
0.00012102915627558
0.000121029154560459
0.000121029137569766
0.000121029064498025
0.000121028812178874
0.000121028019729348
0.000121025686015745
0.000121019159135461
0.000121001756467556
0.000120957519375954
0.000120850497055383
0.000120604704178272
0.000120070426781578
0.000118974817984021
0.000116862408082592
0.000113045707731778
0.000106603969448667
9.64777016549453e-05
8.16906368658467e-05
6.16790388140486e-05
3.66319096593087e-05
7.56736390142392e-06
2.62772332067887e-07
3.25363824412621e-07
9.46556802194426e-06
4.6024999983499e-05
7.75627946316874e-05
0.0001027492781742
0.000121337011142803
0.000134037668416949
0.000142087730798281
0.000146831086973803
0.00014943592240436
0.000150772919031514
0.000151416339136911
0.000151707598573306
0.000151832011912273
0.000151882305947752
0.000151901590443984
0.000151908609134397
0.000151911025932965
0.00015191180175665
0.000151912021502323
0.000151912063274264
0.000151912053890318
0.000151912034201092
0.000151912015378532
0.000151912000657594
0.000151911990983003
0.00015191198645182
0.000151911985587447
0.000151911982941326
0.000151911961243378
0.000151911870779708
0.000151911559907498
0.000151910584506702
0.000151907710553994
0.000151899664341607
0.000151878185053094
0.000151823521397351
0.000151691132883059
0.000151386798553349
0.000150724741973217
0.000149366167937691
0.000146745049072522
0.000142005806842048
0.000133999263797709
0.000121394745474038
0.000102947418375515
7.78993224417959e-05
4.64043218724106e-05
9.61130842432587e-06
3.33227778299152e-07
3.89161099656737e-07
1.13262078985187e-05
5.48706427314649e-05
9.21481375220055e-05
0.000121778641823639
0.000143578770386118
0.000158448074920728
0.000167865693353593
0.000173415055366886
0.000176464396734192
0.000178031202151488
0.000178786271439887
0.000179128646672774
0.000179275177805518
0.000179334543047771
0.000179357362955677
0.000179365693409136
0.000179368573548643
0.000179369504397464
0.000179369772348615
0.000179369826704112
0.0001793698187455
0.000179369797773078
0.000179369777152283
0.000179369760773449
0.000179369749719846
0.000179369744015581
0.000179369742124249
0.000179369737800916
0.000179369711641991
0.000179369605803898
0.000179369243878467
0.000179368110402979
0.000179364770524039
0.000179355412676763
0.000179330407098163
0.000179266704672868
0.000179112280685454
0.000178756999469479
0.000177983572330366
0.000176395519264577
0.000173330010413719
0.000167784054299029
0.000158407462002124
0.000143629078022889
0.000121961461677921
9.24614472189395e-05
5.52265610163879e-05
1.14675795386752e-05
3.9706014527999e-07
4.45927111759112e-07
1.29850321488836e-05
6.27133953781381e-05
0.000105007211489437
0.000138494103526314
0.000163070233781722
0.000179809956969735
0.000190406784505565
0.00019665187153026
0.000200085679043829
0.000201851810350586
0.000202704052120727
0.000203091092744957
0.000203257037662528
0.000203324405433914
0.000203350362344293
0.000203359864952088
0.000203363163140129
0.000203364236112934
0.000203364549837107
0.000203364617423884
0.000203364612213765
0.00020336459111833
0.000203364569619987
0.000203364552227622
0.000203364540156017
0.000203364533385374
0.000203364530194285
0.000203364523887332
0.000203364493251543
0.000203364373551162
0.000203363967362586
0.000203362698583555
0.000203358961275648
0.000203348484386022
0.000203320465653109
0.00020324902507696
0.000203075701578367
0.000202676653350866
0.000201807424177858
0.000200021765807356
0.000196573277922061
0.000190331582537129
0.000179772400541494
0.000163115161262057
0.00013865822992532
0.000105288153412929
6.30345115505156e-05
1.31178032650857e-05
4.5364049842287e-07
4.95316399195085e-07
1.44317618336265e-05
6.95259709018538e-05
0.00011612595607682
0.000152904879988539
0.000179843604871082
0.000198173409698903
0.000209773009037834
0.00021661054622042
0.00022037248140038
0.000222309226469993
0.000223244933609409
0.000223670492444623
0.000223853254376215
0.000223927589112465
0.000223956292815682
0.000223966828987149
0.000223970499367984
0.000223971700901327
0.000223972057424221
0.000223972138531037
0.000223972137138087
0.0002239721168912
0.000223972095297202
0.000223972077447149
0.000223972064684814
0.000223972056953162
0.000223972052378405
0.000223972043875749
0.000223972008780447
0.00022397187652777
0.000223971432233798
0.000223970048870991
0.000223965976658433
0.000223954557232645
0.000223923997642918
0.000223846021028863
0.000223656707593367
0.00022322057641307
0.00022227008052091
0.000220316648694891
0.000216542787033207
0.000209709695226322
0.000198144719460121
0.000179888129839234
0.000153053157604453
0.00011637454107503
6.98100412889892e-05
1.45543979351042e-05
5.02732741282759e-07
5.37352649249416e-07
1.56665383736458e-05
7.53249780031889e-05
0.000125555986575525
0.000165099139940829
0.0001940176434966
0.000213679308286991
0.000226119478571032
0.000233454476975467
0.000237492600003475
0.000239573388105994
0.000240579812543103
0.000241038137890456
0.0002412352698741
0.0002413155876862
0.000241346663801469
0.000241358098906173
0.00024136209611604
0.000241363412336457
0.000241363808240702
0.000241363902743938
0.000241363905921691
0.000241363887274208
0.000241363866206632
0.000241363848351479
0.000241363835178877
0.000241363826602582
0.000241363820629439
0.000241363809867531
0.000241363770376413
0.000241363626845188
0.000241363150040597
0.000241361670783891
0.000241357320046804
0.000241345117617017
0.000241312445450927
0.000241229026631645
0.000241026379286414
0.000240559283982328
0.000239540858965721
0.000237447080158501
0.000233400891168932
0.000226072639842548
0.000213665251207686
0.000194068374951022
0.000165238409234219
0.000125778391775656
7.55760955219869e-05
1.57794461587903e-05
5.44443188896171e-07
5.72365123240439e-07
1.66982301440797e-05
8.01632593048192e-05
0.000133401802730648
0.000175227671045104
0.000205779168357145
0.000226539579728578
0.000239674012585923
0.000247420694530348
0.000251687979958958
0.000253888662980413
0.000254954163250307
0.0002554399726151
0.000255649212377049
0.00025573459664778
0.000255767693212977
0.000255779899211617
0.000255784179367256
0.0002557855964147
0.000255786027929066
0.000255786135348394
0.00025578614355444
0.000255786127022695
0.000255786106939501
0.000255786089425274
0.000255786076073118
0.000255786066780054
0.000255786059460381
0.000255786046460757
0.000255786002748401
0.000255785849206507
0.00025578534496798
0.000255783786491675
0.000255779207354937
0.000255766363878786
0.000255731961167091
0.000255644078626172
0.00025543047979392
0.000254937921980431
0.000253863583502271
0.000251654203526687
0.000247383605411653
0.000239647217190055
0.000226545330548877
0.000205843142899162
0.000175366731834262
0.000133607661743364
8.03893221819812e-05
1.68030719507297e-05
5.79158484917101e-07
6.00913948128769e-07
1.75423794091824e-05
8.41207786325783e-05
0.000139806387067661
0.000183485965997995
0.000215362991485526
0.000237015884723405
0.000250715116471099
0.000258797457918067
0.000263252109605593
0.000265551142603942
0.000266665283478408
0.000267173815719968
0.000267393111415097
0.000267482724771409
0.000267517517503793
0.000267530375143962
0.000267534896719349
0.000267536401079076
0.000267536864226977
0.000267536983805024
0.000267536997241484
0.000267536983095218
0.000267536964300431
0.000267536947374572
0.00026753693402697
0.000267536924149144
0.000267536915582424
0.000267536900444114
0.000267536852799686
0.000267536690515437
0.000267536163423154
0.000267534540411207
0.000267529776741289
0.000267516416409035
0.000267480617951701
0.000267389131219918
0.000267166678576554
0.000266653512203364
0.000265533878806331
0.000263230792905002
0.000258778220596576
0.000250710810014004
0.000237045588178303
0.000215446680478169
0.000183633880081988
0.000140006522293472
8.43313462386366e-05
1.76414711755863e-05
6.07473013476382e-07
6.23711375986183e-07
1.82190079609723e-05
8.72951310079157e-05
0.000144936645074435
0.000190096359729874
0.000223032018262791
0.000245398508448324
0.000259550177279915
0.000267902064262354
0.000272507624502796
0.00027488614159915
0.000276039743208265
0.000276566787635048
0.000276794313653725
0.000276887405907707
0.000276923601931505
0.000276937002405514
0.000276941726945923
0.000276943305761991
0.000276943796468013
0.000276943927280002
0.000276943946013861
0.00027694393422305
0.000276943916881737
0.000276943900704316
0.000276943887502442
0.000276943877169824
0.000276943867488937
0.000276943850380877
0.000276943799187545
0.000276943629409096
0.000276943083554221
0.000276941408748213
0.000276936498286143
0.000276922727799949
0.000276885821588746
0.000276791471469719
0.000276561976575384
0.000276032400937518
0.000274876671886979
0.000272498867762091
0.000267901144718738
0.000259569655060842
0.00024545499887438
0.000223140616441904
0.000190261185471075
0.000145141342108611
8.7499753204908e-05
1.83148297131057e-05
6.30113698112593e-07
6.41547057236587e-07
1.8750510974391e-05
8.97926043911201e-05
0.0001489699423522
0.000195291649252057
0.000229059056368688
0.000251987078795646
0.000266495544577003
0.000275060570098688
0.000279785834366277
0.000282227624510681
0.000283412762536777
0.000283954665369067
0.00028418882824423
0.000284284740243241
0.000284322080224969
0.000284335926247639
0.000284340818890034
0.000284342460224619
0.000284342974539921
0.000284343115393175
0.000284343138994002
0.000284343129752991
0.000284343113930629
0.000284343098590081
0.000284343085638218
0.000284343074975667
0.000284343064337903
0.000284343045483462
0.000284342991186072
0.000284342815114096
0.000284342254102713
0.000284340538380637
0.000284335513018749
0.000284321422344753
0.000284283651369066
0.000284187063919826
0.000283952060413584
0.000283409636075873
0.000282225620851485
0.000279789231144008
0.000275077659234694
0.000266539008647157
0.000252071772975063
0.000229196076034181
0.000195479638314333
0.000149187799338579
8.99996630136586e-05
1.88453501523521e-05
6.47869914051338e-07
6.55223740923971e-07
1.91598232522205e-05
9.17204890602745e-05
0.000152082670874887
0.000199301264788155
0.000233711493550905
0.000257074334925173
0.000271859760574336
0.00028059071361002
0.000285409476541228
0.000287900871152756
0.00028911083334726
0.000289664483671879
0.000289903918867597
0.000290002082504279
0.000290040341255363
0.000290054547563885
0.000290059577351169
0.000290061270370358
0.000290061804640486
0.000290061954210257
0.000290061982254249
0.000290061975480223
0.000290061961157326
0.000290061946686019
0.000290061934057841
0.000290061923183032
0.000290061911760019
0.000290061891417093
0.00029006183449006
0.000290061653250513
0.000290061080210362
0.000290059332699787
0.000290054218890472
0.000290039882431109
0.000290001447701459
0.000289903141516047
0.00028966390173394
0.0002891115866596
0.000287905779969333
0.000285424230970626
0.000280624871147196
0.00027192645390536
0.000257187286479702
0.000233878645953213
0.000199516493721616
0.000152319990476809
9.19365333872629e-05
1.92555539542938e-05
6.61534218252238e-07
6.65507256300002e-07
1.94689722380957e-05
9.31810494379527e-05
0.000154441386848223
0.000202340611632365
0.000237239518771283
0.000260933660785057
0.000275930681532192
0.000284788796886155
0.000289679465051598
0.000292209154891085
0.000293438361883732
0.000294001160526389
0.000294244721479857
0.000294344656369159
0.000294383642086699
0.000294398135409734
0.00029440327540819
0.000294405010492908
0.000294405561366177
0.000294405718377343
0.000294405750352292
0.000294405745845584
0.000294405732945912
0.000294405719335568
0.000294405707080774
0.000294405696102437
0.00029440568407067
0.000294405662512092
0.000294405603431297
0.000294405418052205
0.000294404835648398
0.000294403063871488
0.000294397883142784
0.00029438336123652
0.000294344425754711
0.00029424482182555
0.000294002380030376
0.000293442581637439
0.000292220274400036
0.000289704510780518
0.000284838614011831
0.000276019079881701
0.000261073743680118
0.000237436831969404
0.000202584976876519
0.000154702026863027
9.34105579802233e-05
1.9566956625879e-05
6.71857030520954e-07
6.7309204499098e-07
1.96980608735045e-05
9.42673031997963e-05
0.00015619668836038
0.000204603765600615
0.000239868084950296
0.000263810596331505
0.000278966714690698
0.00028792076047259
0.000292865872491163
0.000295424674006304
0.000296668573921577
0.000297238389444279
0.000297485130608766
0.000297586438111049
0.000297625990499518
0.000297640709074854
0.00029764593631559
0.000297647705108765
0.000297648269554027
0.000297648432792326
0.000297648468161178
0.000297648465707096
0.000297648454122016
0.000297648441337725
0.000297648429487812
0.000297648418504263
0.000297648406035999
0.000297648383532524
0.000297648322752586
0.000297648134148189
0.00029764754460965
0.000297645754653648
0.000297640524197287
0.000297625864832584
0.000297586558181842
0.000297485991472861
0.00029724117153002
0.000296675809567364
0.000295441224484794
0.00029289998612873
0.000287984527219286
0.000279074750374822
0.000263975773235643
0.000240094188514142
0.000204877244204988
0.000156482255252432
9.45127720995133e-05
1.97991472303844e-05
6.79516012073221e-07
6.7858135680058e-07
1.98646625006909e-05
9.5060522631962e-05
0.00015747968061384
0.000206259327670064
0.000241792396843978
0.000265918100146632
0.000281191940868125
0.000290217219560851
0.000295202914332963
0.00029778350616027
0.000299038452941418
0.000299613569233664
0.00029986272502368
0.000299965080376474
0.000300005067937998
0.000300019960678245
0.000300025255952742
0.000300027051349049
0.000300027626707235
0.000300027795063148
0.000300027833313874
0.000300027832675533
0.000300027822278136
0.000300027810269837
0.000300027798843297
0.00030002778794141
0.00030002777519791
0.000300027752005281
0.000300027689943337
0.000300027498906235
0.000300026904062916
0.000300025100766941
0.000300019834061295
0.000300005074687372
0.000299965497910135
0.000299864229757301
0.000299617675045889
0.000299048250068034
0.000297804690169527
0.000295244816774471
0.000290293083137114
0.000281317231942979
0.000266105728972361
0.000242044899037782
0.000206560398844289
0.000157789940773819
9.53227691625833e-05
1.99692492874328e-05
6.8509899641758e-07
6.82479773352226e-07
1.9983567831543e-05
9.56292115106545e-05
0.000158400649048162
0.000207448972519193
0.000243176407216608
0.000267435017216813
0.00028279456061087
0.000291871891640599
0.000296887361665516
0.000299484010322484
0.000300747135021439
0.000301326194738326
0.000301577156223972
0.000301680299539874
0.00030172061632742
0.000301735641741217
0.000301740989286855
0.000301742805368332
0.000301743389370959
0.000301743561869847
0.000301743602526953
0.000301743603462504
0.000301743594121966
0.000301743582833183
0.000301743571839677
0.000301743561094505
0.000301743548221118
0.000301743524570906
0.000301743461596501
0.00030174326879764
0.000301742670125738
0.00030174085727361
0.000301735564706735
0.000301720734035735
0.000301680964499997
0.000301579195046198
0.000301331398613218
0.000300759061338207
0.000299509060982344
0.000296935802420733
0.00029195799462616
0.000282934622882129
0.000267642154629507
0.000243452297618613
0.000207775104283419
0.000158734042315342
9.59077880032512e-05
2.0091703986119e-05
6.8909812897892e-07
6.85194982831989e-07
2.00668010853245e-05
9.60292187685239e-05
0.000159049429646528
0.000208288067516559
0.000244153626984912
0.000268507014890604
0.000283927902467351
0.000293042640934371
0.000298079600926128
0.000300687891511613
0.000301956974376436
0.000302538921892613
0.000302791212870522
0.000302894939687056
0.000302935501793937
0.000302950626768046
0.000302956013882203
0.000302957845813724
0.000302958436565656
0.000302958612371459
0.000302958655014329
0.000302958657300755
0.000302958648893151
0.000302958638267681
0.00030295862771106
0.00030295861718615
0.000302958604309612
0.000302958580404142
0.000302958516834826
0.000302958322829997
0.00030295772150223
0.000302955902012009
0.00030295059147655
0.000302935711192457
0.000302895807211473
0.000302793687245648
0.000302545020613671
0.000301970638382304
0.000300716108270003
0.000298133423021964
0.000293137232472161
0.000284080328663517
0.000268730686291895
0.000244449653021389
0.00020863619320279
0.00015940359293314
9.63228518414219e-05
2.01782979512358e-05
6.91912311060945e-07
6.87045624332801e-07
2.01238170324094e-05
9.63046248923214e-05
0.000159496928882487
0.000208867692250223
0.000244829500601295
0.000269249189547779
0.000284713167210094
0.000293854297433832
0.00029890649004513
0.000301523073615124
0.000302796422887454
0.000303380449603497
0.000303633703334341
0.000303737855271976
0.000303778597287911
0.000303793795819786
0.000303799212437458
0.000303801056340144
0.000303801652290362
0.000303801830706242
0.000303801874977488
0.000303801878418446
0.000303801870831503
0.000303801860816932
0.000303801850697537
0.00030380184044508
0.00030380182767223
0.000303801803682711
0.000303801739783744
0.000303801545024781
0.000303800941962104
0.000303799118064419
0.000303793795504371
0.000303778881823237
0.000303738886869489
0.000303636528643652
0.00030338726818429
0.00030281148591027
0.000301553846237052
0.000298964675562279
0.000293955815131077
0.000284875765575847
0.000269486607823903
0.000245142485490381
0.000209234627086998
0.000159869167130669
9.66116207799026e-05
2.02383545267086e-05
6.93855025113555e-07
6.88272329922568e-07
2.01617975375175e-05
9.64890597638962e-05
0.000159797278489274
0.000209257426311089
0.000245284637329209
0.000269749586100954
0.000285243121015707
0.000294402447011043
0.00029946519861986
0.000302087563442946
0.000303363904662508
0.000303949398558108
0.000304203336065965
0.000304307791997727
0.000304348663603759
0.000304363915557318
0.000304369353822086
0.000304371206636419
0.000304371806543416
0.000304371987004195
0.000304372032609065
0.000304372037036786
0.000304372030170988
0.000304372020720707
0.000304372011036538
0.000304372001097956
0.000304371988515828
0.00030437196458247
0.000304371900569811
0.00030437170541849
0.000304371101340807
0.000304369274742064
0.000304363944640581
0.000304349009693377
0.000304308956128307
0.000304206442934151
0.000303956793234356
0.000303380087441083
0.000302120385983321
0.000299526897035945
0.000294509571320642
0.000285414012868828
0.000269998313538826
0.000245611725311738
0.000209640199292374
0.000160184949314936
9.68076423464811e-05
2.02790145160007e-05
6.95164941252123e-07
6.89049631300104e-07
2.0185980481109e-05
9.66071649428735e-05
0.000159990189632828
0.00020950836792973
0.000245578293032622
0.000270072981468177
0.000285586062251112
0.000294757501968624
0.000299827333169104
0.00030245360279161
0.000303731980339558
0.000304318480727855
0.00030457289115327
0.000304677559122627
0.000304718521934359
0.000304733811867114
0.000304739265716259
0.000304741125063394
0.000304741727953042
0.000304741910011162
0.000304741956716214
0.000304741961993528
0.000304741955758148
0.000304741946831591
0.000304741937578487
0.000304741927984841
0.00030474191566117
0.000304741891894252
0.000304741827938975
0.000304741632681551
0.000304741028154816
0.000304739200182482
0.00030473386598978
0.000304718919026333
0.000304678831338959
0.000304576225813807
0.000304326339931086
0.000303749065569343
0.000302488079925576
0.000299891876056274
0.000294869187688916
0.000285763743488112
0.000270331038649567
0.000245917122431083
0.000209904464416085
0.000160390991880616
9.69357346426211e-05
2.03055453685893e-05
6.96017216688546e-07
6.89497024981013e-07
2.01999705052512e-05
9.66759793975727e-05
0.000160103168850188
0.000209655964526655
0.000245751628483344
0.000270264422269601
0.000285789530016482
0.000294968507225947
0.000300042795522052
0.000302671552832782
0.000303951243613396
0.000304538401201152
0.000304793124324892
0.000304897934295307
0.000304938959002883
0.000304954275090126
0.00030495973986766
0.000304961603915864
0.000304962209036703
0.000304962392345188
0.000304962439983402
0.000304962446009513
0.000304962440308071
0.000304962431869622
0.000304962423041415
0.000304962413813499
0.000304962401797331
0.000304962378279184
0.000304962314512123
0.000304962119373787
0.00030496151485317
0.000304959686584626
0.000304954351091342
0.000304939399524149
0.000304899297128414
0.000304796648412722
0.000304546645294598
0.000303969075930594
0.000302707401124032
0.000300109701737697
0.000295083998231693
0.000285972904659593
0.000270530353532333
0.000246100442586709
0.00021006348851242
0.000160515341541721
9.70132958561016e-05
2.03216324806002e-05
6.9653394158468e-07
6.89688065809491e-07
2.02059969881396e-05
9.67060933611704e-05
0.000160153356279859
0.000209722350343986
0.000245830396050063
0.000270352141947273
0.000285883363856598
0.000295066282621502
0.000300142970164848
0.000302773104469503
0.000304053542726401
0.000304641084807048
0.000304895995878068
0.000305000893530894
0.000305041957555075
0.000305057290808656
0.000305062763076217
0.000305064630556131
0.000305065237453031
0.000305065421842695
0.000305065470333248
0.000305065477055631
0.000305065471912802
0.000305065463953698
0.000305065455544032
0.000305065446677505
0.000305065434967481
0.000305065411703933
0.000305065348151738
0.000305065153221696
0.000305064548982179
0.000305062721228659
0.000305057386742
0.000305042436885054
0.000305002336362688
0.000304899686105047
0.000304649665453386
0.00030407202775866
0.000302810151501877
0.000300211946466376
0.000295185117556098
0.000286071760828145
0.000270625052538623
0.000246188110354924
0.000210140125493469
0.000160575802272198
9.7051392447347e-05
2.03296201782377e-05
6.96792679673884e-07
6.89656573352159e-07
2.02050912722798e-05
9.67024590025137e-05
0.000160148830475919
0.000209718018555831
0.000245826863985943
0.000270349646458049
0.000285881886789448
0.0002950656610178
0.000300142988407736
0.000302773556860901
0.00030405426591001
0.000304641964497184
0.000304896960137056
0.00030500190093891
0.000305042986039706
0.000305058329373534
0.000305063806547739
0.000305065676605921
0.000305066285054042
0.00030506647050659
0.000305066519863886
0.000305066527324182
0.000305066522774619
0.00030506651530416
0.000305066507303337
0.000305066498769528
0.000305066487318651
0.000305066464248573
0.000305066400849817
0.000305066206109272
0.000305065602301295
0.000305063775737909
0.000305058444412293
0.00030504350234948
0.000305003419703609
0.000304900807721134
0.000304650863596421
0.000304073368433328
0.000302811738345806
0.000300213925036429
0.000295187665355764
0.000286075053866638
0.000270629203438634
0.000246193081230064
0.000210145625783258
0.000160581181114066
9.70555277216385e-05
2.03306812997307e-05
6.9683245618183e-07
6.89400221485992e-07
2.01971914146689e-05
9.66648445909961e-05
0.000160089299713053
0.000209642688872177
0.000245740805538872
0.000270256783407357
0.000285785024535439
0.000294966637623165
0.000300042899622099
0.000302672998018085
0.000303953525564122
0.000304541166929696
0.000304796151454897
0.000304901094716159
0.000304942184429008
0.000304957531507509
0.000304963011284212
0.000304964883146103
0.000304965492922174
0.000304965679402436
0.000304965729626719
0.000304965737828704
0.000304965733877614
0.00030496572689033
0.000304965719281923
0.00030496571105284
0.000304965699822978
0.00030496567690328
0.000304965613626794
0.000304965419107423
0.000304964815972664
0.000304962991457807
0.000304957665842926
0.000304942738529685
0.000304902691652302
0.000304800161685015
0.00030455039583641
0.000303973268128655
0.000302712355589393
0.000300115868085326
0.000295091923423063
0.000285983128633829
0.000270543217370911
0.000246115820269432
0.000210080474892023
0.000160531926144575
9.70260216966308e-05
2.03248955836139e-05
6.96656245992542e-07
6.8888114327075e-07
2.01811556082375e-05
9.65878621999683e-05
0.000159966124043944
0.000209485317613208
0.000245559501368768
0.000270059741083175
0.000285578303535434
0.000294754368303231
0.000299827671302916
0.000302456304551581
0.000303736158952771
0.000304323513973434
0.000304578386341922
0.000304683289762284
0.000304724367226022
0.00030473971163491
0.000304745191683486
0.000304747064542323
0.000304747675383155
0.00030474786281787
0.000304747913878479
0.00030474792279465
0.000304747919423205
0.000304747912899594
0.000304747905661925
0.000304747897713596
0.000304747886680444
0.000304747863893565
0.00030474780074995
0.000304747606554987
0.000304747004472769
0.00030474518316462
0.000304739866516605
0.000304724962611576
0.000304684973449565
0.000304582578585431
0.000304333113416505
0.000303756621583665
0.000302496984971586
0.00029990292224522
0.00029488333406072
0.00028578192853939
0.000270353840283495
0.000245944288492005
0.000209934374888965
0.000160420105369248
9.69580077270028e-05
2.03112560776943e-05
6.96231789211277e-07
6.88022222673835e-07
2.0154659982381e-05
9.64605589947517e-05
0.000159761687257459