/*--------------------------------*- C++ -*----------------------------------*\
  =========                 |
  \\      /  F ield         | OpenFOAM: The Open Source CFD Toolbox
   \\    /   O peration     | Website:  https://openfoam.org
    \\  /    A nd           | Version:  10
     \\/     M anipulation  |
\*---------------------------------------------------------------------------*/
FoamFile
{
    format      ascii;
    class       volScalarField;
    location    "5.6";
    object      nut;
}
// * * * * * * * * * * * * * * * * * * * * * * * * * * * * * * * * * * * * * //

dimensions      [0 2 -1 0 0 0 0];

internalField   nonuniform List<scalar> 
2500
(
9.2591324121674e-15
1.81029908394419e-13
7.68327815888256e-13
1.31541468694872e-12
1.76334803695518e-12
2.09808224343505e-12
2.32753125646725e-12
2.47233110891766e-12
2.5567892936887e-12
2.60250629267006e-12
2.62556656882729e-12
2.63644966020311e-12
2.64127368246407e-12
2.64328915055258e-12
2.64408525648529e-12
2.64438317223425e-12
2.64448876184491e-12
2.64452398284436e-12
2.6445347618278e-12
2.6445375021024e-12
2.64453778409925e-12
2.64453741391842e-12
2.64453694757462e-12
2.64453654259861e-12
2.64453623952253e-12
2.64453605361887e-12
2.64453599683817e-12
2.64453601271393e-12
2.64453598850695e-12
2.64453573552229e-12
2.64453439251173e-12
2.64452947218712e-12
2.64451371253459e-12
2.6444667109231e-12
2.64433390369452e-12
2.6439763652049e-12
2.64305859040605e-12
2.6408155680872e-12
2.63560932665972e-12
2.62416864286406e-12
2.60044999994786e-12
2.55423542310823e-12
2.46994863742395e-12
2.3266623852777e-12
2.10057501684558e-12
1.77081425231752e-12
1.32788019275628e-12
7.82443813963711e-13
1.87290489456478e-13
9.79193461505726e-15
9.13233728113969e-13
4.68463152988122e-11
2.03016228709458e-10
3.47955018085491e-10
4.66983911841171e-10
5.56340780263376e-10
6.17940064321956e-10
6.57069171317269e-10
6.80057762480914e-10
6.92598017449779e-10
6.9897479267071e-10
7.02009317259815e-10
7.03365755776696e-10
7.03937281721817e-10
7.0416495061552e-10
7.04250875660349e-10
7.04281600451228e-10
7.04291952273707e-10
7.04295166006017e-10
7.04296010339925e-10
7.04296120982491e-10
7.04296032686801e-10
7.04295910245054e-10
7.04295802712653e-10
7.04295721860241e-10
7.04295672264285e-10
7.04295657042874e-10
7.04295661050908e-10
7.04295651956278e-10
7.04295567832686e-10
7.04295157716622e-10
7.04293697572614e-10
7.04289073242779e-10
7.04275400154391e-10
7.04237061471064e-10
7.04134608743146e-10
7.03873554564609e-10
7.03240276062811e-10
7.01781387591441e-10
6.98599575326179e-10
6.92052423011761e-10
6.79389492730874e-10
6.56459266583039e-10
6.17741501127388e-10
5.57029555627497e-10
4.6896414501043e-10
3.51214186567331e-10
2.06675663220353e-10
4.84264576002073e-11
9.63484130401388e-13
3.22695375702884e-12
8.38456466120854e-10
2.85056701557777e-07
4.87079709184692e-07
6.51760927894616e-07
7.75007551700226e-07
8.5993836258014e-07
9.13989753435568e-07
9.45860324740656e-07
9.6333048468117e-07
9.72265061475128e-07
9.76543523015707e-07
9.78468724339211e-07
9.79285481558594e-07
9.79613139595643e-07
9.79737703700458e-07
9.79782591047669e-07
9.79797851782606e-07
9.79802652366339e-07
9.79803951046256e-07
9.79804152493789e-07
9.79804050128807e-07
9.79803890295517e-07
9.79803746963478e-07
9.79803638307881e-07
9.7980357110083e-07
9.79803549546326e-07
9.79803553778853e-07
9.7980353736271e-07
9.79803399423679e-07
9.79802783919429e-07
9.79800639016308e-07
9.79793905135185e-07
9.79774117210118e-07
9.79718921789887e-07
9.79572146059045e-07
9.79199970521232e-07
9.78301542747595e-07
9.76242026174437e-07
9.71772318504304e-07
9.62619138874741e-07
9.44995270665368e-07
9.13206424637855e-07
8.59689234607249e-07
7.75898422015445e-07
6.54304863379932e-07
4.91259832733763e-07
2.89746965477111e-07
8.63922835420694e-10
3.37535726957513e-12
5.68904854694683e-12
1.48853216866285e-09
5.06756333705352e-07
8.61468519706764e-07
1.14827232261421e-06
1.36171454091833e-06
1.50829126085325e-06
1.60141617996287e-06
1.6563067813134e-06
1.68641502442373e-06
1.70183377277773e-06
1.70923097309797e-06
1.71256694101296e-06
1.71398578075355e-06
1.71455656415855e-06
1.71477422408791e-06
1.71485293360427e-06
1.71487980962315e-06
1.71488832062093e-06
1.71489065684136e-06
1.71489104478979e-06
1.71489088786794e-06
1.71489062632628e-06
1.71489038695172e-06
1.7148902039861e-06
1.71489008916309e-06
1.71489004907116e-06
1.71489005166375e-06
1.71489002503793e-06
1.71488978537616e-06
1.71488873041382e-06
1.71488507097338e-06
1.71487357613774e-06
1.71483975874726e-06
1.71474530664513e-06
1.71449381599053e-06
1.71385536879156e-06
1.71231259426963e-06
1.70877299253765e-06
1.70108569351663e-06
1.68533380580837e-06
1.65498529490883e-06
1.60019818589866e-06
1.50783939434513e-06
1.36291702764798e-06
1.15188185049366e-06
8.67454714665199e-07
5.13451492204036e-07
1.5243664521787e-09
5.89475738917269e-12
8.0747197402478e-12
2.11398509284389e-09
7.16876623047028e-07
1.21307853748492e-06
1.61160712931142e-06
1.9068380275918e-06
2.10901483030227e-06
2.23729040120107e-06
2.31288097969223e-06
2.35436692634987e-06
2.37563698906242e-06
2.38585773483752e-06
2.39047603300341e-06
2.39244466441932e-06
2.39323861367923e-06
2.39354223013865e-06
2.39365238423577e-06
2.39369015651962e-06
2.39370219914713e-06
2.39370555577868e-06
2.39370615235391e-06
2.39370596672878e-06
2.39370562848641e-06
2.39370531225017e-06
2.39370506798529e-06
2.39370491139796e-06
2.39370484714749e-06
2.39370484124698e-06
2.39370480757595e-06
2.39370447171972e-06
2.39370302677509e-06
2.3936980369339e-06
2.3936823631979e-06
2.39363620523414e-06
2.3935071135533e-06
2.39316291431572e-06
2.39228796553972e-06
2.39017120110769e-06
2.38530970532114e-06
2.37474225243813e-06
2.35307207343679e-06
2.31129006800901e-06
2.23579756295297e-06
2.10838159149718e-06
1.90808440279624e-06
1.61559521562491e-06
1.21976912677442e-06
7.24371686745583e-07
2.15448482540396e-09
8.31081620548211e-12
1.0305610989361e-11
2.69874128444208e-09
9.11360010120322e-07
1.53594118507584e-06
2.03475853001941e-06
2.402889872302e-06
2.65442595199377e-06
2.81385592000399e-06
2.90779647512803e-06
2.95938400637936e-06
2.98586244121701e-06
2.9986049399066e-06
3.00437311298996e-06
3.00683701718008e-06
3.0078330464685e-06
3.0082149578219e-06
3.00835395575186e-06
3.00840181767143e-06
3.00841718190603e-06
3.00842153367159e-06
3.00842236092977e-06
3.00842217530965e-06
3.00842178576187e-06
3.00842141325793e-06
3.00842112181567e-06
3.00842093030279e-06
3.00842084063322e-06
3.00842082361663e-06
3.00842077140078e-06
3.0084203418811e-06
3.00841855065854e-06
3.00841239481606e-06
3.00839307788432e-06
3.00833616173704e-06
3.0081768146379e-06
3.00775143767994e-06
3.00666887259297e-06
3.00404702810335e-06
2.99801991907605e-06
2.98490834124286e-06
2.95800258087124e-06
2.9060925588221e-06
2.81223345705142e-06
2.65366532793466e-06
2.40403315734585e-06
2.03868224988054e-06
1.54260483696609e-06
9.18869738171933e-07
2.74027981623027e-09
1.05545807578877e-11
1.23372890789841e-11
3.23192994389333e-09
1.08738187099402e-06
1.82617938922035e-06
2.41343424079928e-06
2.84549745141015e-06
3.14019541257736e-06
3.3268443069859e-06
3.43682727463455e-06
3.49726203139264e-06
3.52831438040981e-06
3.54327898042639e-06
3.55006444746204e-06
3.55296851391933e-06
3.55414505793562e-06
3.55459731874541e-06
3.55476241688699e-06
3.5548194969891e-06
3.55483794493279e-06
3.55484325526938e-06
3.55484433245851e-06
3.55484417475376e-06
3.55484375930999e-06
3.55484335076716e-06
3.5548430261632e-06
3.55484280711409e-06
3.55484269408992e-06
3.5548426566553e-06
3.55484257109026e-06
3.5548420528018e-06
3.55483995549807e-06
3.5548327831542e-06
3.55481031922836e-06
3.5547441271882e-06
3.5545586673377e-06
3.55406308940562e-06
3.5528005884162e-06
3.54974009672426e-06
3.54269885118618e-06
3.52737042429804e-06
3.49589697607261e-06
3.43514180053132e-06
3.32522633178441e-06
3.13939052221194e-06
2.84649448192741e-06
2.41705738746443e-06
1.8323881794836e-06
1.09443403607339e-06
3.27225833200172e-09
1.25875955486892e-11
1.4143905425496e-11
3.70695620835037e-09
1.24333281346201e-06
2.0818729690059e-06
2.74580890069036e-06
3.23307347980643e-06
3.56496677883243e-06
3.77506620585244e-06
3.8988849690545e-06
3.96696552265059e-06
4.00198175851612e-06
4.01887872553421e-06
4.02655237670163e-06
4.02984247657765e-06
4.03117813970874e-06
4.03169277224577e-06
4.03188117450562e-06
4.03194656540646e-06
4.03196783839527e-06
4.03197405830836e-06
4.03197539825533e-06
4.0319752949434e-06
4.03197487676735e-06
4.03197445057872e-06
4.03197410571657e-06
4.0319738663725e-06
4.03197373214582e-06
4.03197366890224e-06
4.03197354392434e-06
4.03197293662615e-06
4.03197056358179e-06
4.03196251065092e-06
4.03193735544603e-06
4.03186325813896e-06
4.03165553923669e-06
4.03110002805567e-06
4.02968361599109e-06
4.02624722597435e-06
4.01833550829102e-06
4.00110174410989e-06
3.96569835962733e-06
3.8973267505978e-06
3.77357523692332e-06
3.56422219623593e-06
3.23396426921772e-06
2.74906293460473e-06
2.08744273997618e-06
1.24969837904239e-06
3.74485082136366e-09
1.43884690803364e-11
1.57144584795704e-11
4.12090797525159e-09
1.37868776429777e-06
2.30277847892653e-06
3.03211809540734e-06
3.56632275991033e-06
3.92980889054161e-06
4.15983247729187e-06
4.29542276453343e-06
4.37002293113014e-06
4.40842906987053e-06
4.4269843661122e-06
4.43542329570556e-06
4.43904750541433e-06
4.44052157914916e-06
4.44109077936784e-06
4.44129971352249e-06
4.44137249770104e-06
4.44139632420393e-06
4.44140339403888e-06
4.44140500236529e-06
4.44140497472855e-06
4.44140457323833e-06
4.4414041450226e-06
4.44140379102351e-06
4.44140353793021e-06
4.44140338461454e-06
4.44140329391064e-06
4.44140312533634e-06
4.4414024294501e-06
4.44139980696439e-06
4.44139099670868e-06
4.44136356444558e-06
4.44128281176376e-06
4.44105636242224e-06
4.44045035950254e-06
4.43890406668776e-06
4.43514993975319e-06
4.42650135924385e-06
4.40765280058806e-06
4.36891576255271e-06
4.29407909498535e-06
4.158576966354e-06
3.92923998325441e-06
3.56720574203814e-06
3.03505850638688e-06
2.30770785227773e-06
1.38432038900049e-06
4.15592042920332e-09
1.59496883298418e-11
1.70502151652137e-11
4.47397153243335e-09
1.49382739122064e-06
2.4900077060495e-06
3.27422818521326e-06
3.84774026194888e-06
4.23767032029947e-06
4.48438356095531e-06
4.62985104559517e-06
4.70993495793597e-06
4.75120106142068e-06
4.77116042458857e-06
4.78024991007154e-06
4.78415942109603e-06
4.78575227938143e-06
4.78636857893807e-06
4.78659535908459e-06
4.78667463138927e-06
4.78670073450581e-06
4.78670858600023e-06
4.78671046015379e-06
4.78671052316016e-06
4.78671015334187e-06
4.78670973552301e-06
4.78670938140262e-06
4.78670912015451e-06
4.78670895007234e-06
4.78670883162202e-06
4.78670861821106e-06
4.78670783505967e-06
4.78670498861811e-06
4.78669553275266e-06
4.78666619628211e-06
4.78657991280523e-06
4.78633791508373e-06
4.78568996268467e-06
4.78403560544999e-06
4.7800167143285e-06
4.77075330404241e-06
4.75055594696428e-06
4.70903221403747e-06
4.62878834029127e-06
4.48345466738839e-06
4.23739155880961e-06
3.84874639754698e-06
3.27699020508362e-06
2.49441840327805e-06
1.49880727371466e-06
4.50621200345181e-09
1.72751604156933e-11
1.81621838601167e-11
4.76882321527192e-09
1.58984699523593e-06
2.64571145049942e-06
3.47523227969569e-06
4.0811515293947e-06
4.49288678235273e-06
4.7533781240524e-06
4.9070157532606e-06
4.99164753698717e-06
5.03529301385904e-06
5.05642475464228e-06
5.06605966237546e-06
5.07020944993981e-06
5.07190284966968e-06
5.07255924347722e-06
5.07280132116364e-06
5.07288620809596e-06
5.07291431191087e-06
5.07292286997107e-06
5.07292500036788e-06
5.07292516310647e-06
5.07292483523358e-06
5.07292443692372e-06
5.07292408956047e-06
5.0729238247465e-06
5.07292364044204e-06
5.0729234952786e-06
5.07292323747094e-06
5.07292237055554e-06
5.072919325438e-06
5.07290932507803e-06
5.07287841633532e-06
5.07278759978342e-06
5.07253287919214e-06
5.07185058096073e-06
5.070107633827e-06
5.06587139427355e-06
5.05610264685731e-06
5.03479562102553e-06
4.99097766083075e-06
4.90628017875012e-06
4.75284670401694e-06
4.49300084645254e-06
4.08242033661866e-06
3.47799025861007e-06
2.64979419120935e-06
1.59433031469179e-06
4.798763209093e-09
1.83777287008917e-11
1.9068551182006e-11
5.01000204576211e-09
1.6683643738349e-06
2.77277719743468e-06
3.639074646838e-06
4.27129189622244e-06
4.70073379983026e-06
4.97243067463397e-06
5.13272774505356e-06
5.22107684230578e-06
5.26667355672254e-06
5.28877030852015e-06
5.29885602627836e-06
5.30320531673929e-06
5.30498261794317e-06
5.30567266197262e-06
5.30592766743822e-06
5.30601734378869e-06
5.30604717972525e-06
5.30605636532075e-06
5.30605873690298e-06
5.30605900338361e-06
5.30605872281859e-06
5.30605835005877e-06
5.30605801436488e-06
5.30605774964062e-06
5.30605755373569e-06
5.30605738383552e-06
5.30605708360309e-06
5.30605613868097e-06
5.30605292011358e-06
5.30604246631667e-06
5.30601027714692e-06
5.30591579932891e-06
5.30565082396958e-06
5.30494083339168e-06
5.30312637754502e-06
5.29871447538217e-06
5.28853684899111e-06
5.26633116416733e-06
5.22065406880115e-06
5.13234621233288e-06
4.97234526675405e-06
4.70132291311671e-06
4.27295171036759e-06
3.64200824413285e-06
2.77674648790219e-06
1.67254051481383e-06
5.03830131647788e-09
1.9276676718504e-11
1.97921680338431e-11
5.20328431267971e-09
1.7313331640783e-06
2.87454402680523e-06
3.77020199645337e-06
4.42341878423571e-06
4.86701598562876e-06
5.14768766569123e-06
5.3133315977779e-06
5.40467419993878e-06
5.45184760034551e-06
5.47472711213667e-06
5.48518004403133e-06
5.48969259332153e-06
5.49153890251166e-06
5.49225678232435e-06
5.49252255542293e-06
5.49261625775478e-06
5.49264757058351e-06
5.49265730280582e-06
5.49265989721154e-06
5.49266026876085e-06
5.49266003491197e-06
5.49265969097922e-06
5.49265937013016e-06
5.4926591082964e-06
5.49265890337037e-06
5.49265871137092e-06
5.4926583720684e-06
5.49265735675058e-06
5.49265398952302e-06
5.4926431635317e-06
5.49260994692371e-06
5.49251255718488e-06
5.4922394455924e-06
5.49150748054931e-06
5.48963622398028e-06
5.48508462576799e-06
5.47458149210108e-06
5.45165978656768e-06
5.40450052668394e-06
5.3133133607065e-06
5.14807397152992e-06
4.8681363687827e-06
4.42557262948169e-06
3.77347101371069e-06
2.87860381402802e-06
1.73539144335182e-06
5.23065033330921e-09
1.99953273128579e-11
2.03582241599423e-11
5.35509570025926e-09
1.78087040438163e-06
2.95454390824365e-06
3.87324967862966e-06
4.54296401467713e-06
4.99769910538263e-06
5.28544779371431e-06
5.45531929257411e-06
5.54903620152504e-06
5.59746460899203e-06
5.62096963751511e-06
5.631717281422e-06
5.63636147045339e-06
5.63826370816482e-06
5.63900427786987e-06
5.63927888820233e-06
5.63937592474197e-06
5.63940847758541e-06
5.63941867807995e-06
5.63942147164418e-06
5.63942193972339e-06
5.63942175644577e-06
5.63942144263921e-06
5.63942113838869e-06
5.63942088151376e-06
5.63942067004369e-06
5.63942045906552e-06
5.63942008512512e-06
5.63941900823982e-06
5.63941551618097e-06
5.63940438955942e-06
5.63937036137932e-06
5.63927069259448e-06
5.63899123005548e-06
5.63824211238e-06
5.63632647835948e-06
5.63166561696409e-06
5.62090762996491e-06
5.59742487015476e-06
5.54910357041912e-06
5.45565822420765e-06
5.28630982373524e-06
4.99937885922276e-06
4.54568154958348e-06
3.87697809990222e-06
2.95886470471616e-06
1.78497702560494e-06
5.3821813795468e-09
2.05588653207902e-11
2.07922562607053e-11
5.47200007814974e-09
1.81910809894625e-06
3.0162816707896e-06
3.95277620505633e-06
4.63524021433371e-06
5.09859947752716e-06
5.39184137299962e-06
5.56500386874737e-06
5.66057522387795e-06
5.70998748219693e-06
5.73398487070848e-06
5.74496551290098e-06
5.74971427234832e-06
5.75166116864745e-06
5.75241996103993e-06
5.75270171720024e-06
5.75280147383641e-06
5.75283505177726e-06
5.75284564804909e-06
5.75284861449297e-06
5.7528491706955e-06
5.7528490363465e-06
5.75284875227951e-06
5.75284846526917e-06
5.75284821481413e-06
5.75284799913417e-06
5.75284777258174e-06
5.75284736911925e-06
5.75284624007816e-06
5.75284264552586e-06
5.75283128032511e-06
5.75279662165021e-06
5.75269519859327e-06
5.75241086113146e-06
5.75164857852779e-06
5.74969885503713e-06
5.74495397126391e-06
5.73399981132232e-06
5.7100848396435e-06
5.66086785106066e-06
5.56568132111863e-06
5.39316411343642e-06
5.10083966552026e-06
4.63855537772953e-06
3.95704487967371e-06
3.02098847372869e-06
1.82339294201902e-06
5.49934048748444e-09
2.0992506139612e-11
2.11185942419376e-11
5.56029431377793e-09
1.84807619996057e-06
3.06306332966639e-06
4.01305714773268e-06
4.70521335888652e-06
5.17514347571157e-06
5.47258204474229e-06
5.64826661540636e-06
5.74526410321912e-06
5.79543588975702e-06
5.81981496969663e-06
5.83097705482687e-06
5.8358076423411e-06
5.83778966869429e-06
5.83856287933272e-06
5.83885032797487e-06
5.83895227047501e-06
5.83898668271843e-06
5.83899760828673e-06
5.83900072231844e-06
5.83900135648488e-06
5.83900126710427e-06
5.83900101126458e-06
5.83900074133007e-06
5.83900049828052e-06
5.83900028054725e-06
5.83900004192117e-06
5.8389996143482e-06
5.83899844259055e-06
5.8389947659365e-06
5.83898321502109e-06
5.83894807505832e-06
5.8388453247511e-06
5.83855730921569e-06
5.83778509491411e-06
5.83580963255447e-06
5.83100124150715e-06
5.81989866086262e-06
5.79565642499127e-06
5.74576083963962e-06
5.64925464732702e-06
5.47433526492904e-06
5.17792176473823e-06
4.70912670691881e-06
4.0179036878065e-06
3.06823265036812e-06
1.8526280833167e-06
5.58827841377276e-09
2.13200917766008e-11
2.13592863252947e-11
5.62572211580627e-09
1.86962022282323e-06
3.09787677012612e-06
4.05794297233941e-06
4.75734651096687e-06
5.23220261122548e-06
5.53279661069122e-06
5.71038379811228e-06
5.80846108696954e-06
5.85921025389198e-06
5.88388074281176e-06
5.89518199572244e-06
5.90007565725365e-06
5.90208490701893e-06
5.90286935659585e-06
5.90316127272712e-06
5.90326494552636e-06
5.90330002631836e-06
5.90331122106348e-06
5.90331445859949e-06
5.90331516007801e-06
5.90331511140763e-06
5.90331488164059e-06
5.90331462808945e-06
5.90331439307e-06
5.90331417523337e-06
5.90331392795013e-06
5.90331348163677e-06
5.90331227617953e-06
5.90330853555699e-06
5.90329684313612e-06
5.90326134262152e-06
5.90315760604958e-06
5.90286686425657e-06
5.90208728844283e-06
5.900092730966e-06
5.89523717336893e-06
5.88402424871114e-06
5.85953850253135e-06
5.80913766887628e-06
5.71164849542266e-06
5.53493930174212e-06
5.23547859432177e-06
4.76183086347851e-06
4.06336692267527e-06
3.10354046974329e-06
1.874488651336e-06
5.65459214666587e-09
2.15631384801536e-11
2.15334799385452e-11
5.67330328180269e-09
1.88535230835909e-06
3.12332261211859e-06
4.09077806095388e-06
4.79551176544528e-06
5.27400114592348e-06
5.57692995553154e-06
5.7559299189449e-06
5.85481209334604e-06
5.90599343171022e-06
5.93088301523659e-06
5.94228939932268e-06
5.94723095058241e-06
5.94926098256627e-06
5.95005406301308e-06
5.95034943339013e-06
5.95045445551593e-06
5.95049006393298e-06
5.95050147511626e-06
5.95050481415092e-06
5.95050557278628e-06
5.95050556012786e-06
5.95050535391641e-06
5.95050511575567e-06
5.9505048891331e-06
5.95050467291611e-06
5.95050442017406e-06
5.95050396019256e-06
5.95050272930903e-06
5.95049894043814e-06
5.95048714280643e-06
5.9504513777175e-06
5.95034692220625e-06
5.95005419691062e-06
5.94926926362499e-06
5.94726079427491e-06
5.94237083067409e-06
5.93107732344456e-06
5.90641357799599e-06
5.85564315199807e-06
5.75743453484535e-06
5.57941487583703e-06
5.27772242198162e-06
4.80051968662975e-06
4.09674925946854e-06
3.12947605747648e-06
1.89055349067236e-06
5.70317303259584e-09
2.17403047040963e-11
2.16571886590506e-11
5.70726232678313e-09
1.89663119401935e-06
3.1415883028913e-06
4.11437244459702e-06
4.82296102487308e-06
5.30408636071078e-06
5.60871492240903e-06
5.78874724658453e-06
5.88821995749876e-06
5.93971975311391e-06
5.96477153039549e-06
5.97625612496696e-06
5.9812334888415e-06
5.98327914861009e-06
5.9840787586444e-06
5.98437676035562e-06
5.98448281918288e-06
5.98451883785216e-06
5.98453042048207e-06
5.98453384168509e-06
5.98453464804662e-06
5.98453466660352e-06
5.98453448135297e-06
5.98453425746255e-06
5.98453403942845e-06
5.9845338263196e-06
5.98453357100149e-06
5.98453310194469e-06
5.98453185296413e-06
5.984528029152e-06
5.98451615558749e-06
5.98448020097009e-06
5.98437523254992e-06
5.98408109321064e-06
5.98329233692212e-06
5.98127392520846e-06
5.97635933439029e-06
5.96500806720912e-06
5.94021658736527e-06
5.88918069168163e-06
5.79045494249517e-06
5.61149280245086e-06
5.3081945539907e-06
4.82843280845485e-06
4.12084067409281e-06
3.14820055108427e-06
1.90215625129202e-06
5.73814577031047e-09
2.18672094846241e-11
2.17433502734686e-11
5.73103345172836e-09
1.90456457224398e-06
3.15445562168355e-06
4.13101428285428e-06
4.84234230187098e-06
5.32534737502249e-06
5.63119258065539e-06
5.8119668095589e-06
5.91186573280457e-06
5.96359642382223e-06
5.98876636996326e-06
6.00030823854076e-06
6.00531197037178e-06
6.00736920277111e-06
6.0081736782514e-06
6.00847365455404e-06
6.00858049814869e-06
6.00861683117398e-06
6.00862854766387e-06
6.00863203445346e-06
6.008632880199e-06
6.00863292554805e-06
6.00863275880055e-06
6.00863254806575e-06
6.00863233869648e-06
6.00863212995613e-06
6.00863187457554e-06
6.00863140045617e-06
6.00863013967666e-06
6.00862629194642e-06
6.0086143657079e-06
6.00857827943675e-06
6.00847295464455e-06
6.00817783132586e-06
6.0073864085767e-06
6.00536104513623e-06
6.00042919560537e-06
5.98903737066938e-06
5.96415605185919e-06
5.91293319605416e-06
5.81384286040182e-06
5.63421567656296e-06
5.32978348975303e-06
4.84821343894952e-06
4.13791872155526e-06
3.16147980518658e-06
1.9103882492273e-06
5.76287670679236e-09
2.19565118124018e-11
2.18020763820692e-11
5.7473169549118e-09
1.91002670925933e-06
3.16333088432874e-06
4.14250999235953e-06
4.85574691684557e-06
5.34006693965577e-06
5.6467667518648e-06
5.82806440918227e-06
5.9282654414754e-06
5.98016060758793e-06
6.00541516959227e-06
6.01699827505569e-06
6.02202110122645e-06
6.02408676508276e-06
6.02489480871355e-06
6.02519624389385e-06
6.0253036726346e-06
6.02534024308535e-06
6.02535206267352e-06
6.02535560122918e-06
6.02535647927057e-06
6.02535654751766e-06
6.02535639704648e-06
6.02535619842777e-06
6.02535599773007e-06
6.02535579439334e-06
6.02535554106921e-06
6.02535506528289e-06
6.0253537979654e-06
6.02534993527837e-06
6.02533797463131e-06
6.02530180094694e-06
6.02519623767125e-06
6.0249004519896e-06
6.02410722497888e-06
6.02207713612984e-06
6.01713350922357e-06
6.00571391724383e-06
5.98077092650769e-06
5.92941944521071e-06
5.83007782773337e-06
5.64999159414993e-06
5.34477569849499e-06
4.86195440172287e-06
4.14978747611698e-06
3.17071355157943e-06
1.91611541318177e-06
5.78002860607882e-09
2.20181596662479e-11
2.18410030485263e-11
5.75816397286475e-09
1.91368459574221e-06
3.16928769996534e-06
4.15023956357535e-06
4.86477361462737e-06
5.34999127263032e-06
5.65727729213709e-06
5.83893582532244e-06
5.9393462738215e-06
5.99135609937906e-06
6.01667000063268e-06
6.02828220466665e-06
6.03331859219462e-06
6.03539028517369e-06
6.03620089896959e-06
6.03650339366481e-06
6.03661125173384e-06
6.03664799893005e-06
6.03665989699346e-06
6.03666347610587e-06
6.03666438059724e-06
6.03666446841498e-06
6.03666433224641e-06
6.03666414481936e-06
6.03666395275358e-06
6.03666375564201e-06
6.03666350610051e-06
6.03666303142805e-06
6.03666176185569e-06
6.03665789138705e-06
6.03664591060945e-06
6.03660968335533e-06
6.03650397051139e-06
6.03620776306269e-06
6.0354133736211e-06
6.03338021130376e-06
6.0284288646346e-06
6.01699095659166e-06
5.99200707468041e-06
5.94056994947707e-06
5.84106044076312e-06
5.66066662055203e-06
5.35492432796911e-06
4.87126080851096e-06
4.15783116788743e-06
3.17697644408338e-06
1.9200031004965e-06
5.7916408779917e-09
2.20597268563742e-11
2.18656687233825e-11
5.76507043638909e-09
1.9160269531652e-06
3.17311366875377e-06
4.15521643872562e-06
4.8705976295235e-06
5.35640510850346e-06
5.66407877768258e-06
5.84597756033105e-06
5.94652841734011e-06
5.99861568629233e-06
6.02396997383121e-06
6.03560213954872e-06
6.04064790641973e-06
6.04272380473077e-06
6.04353622740706e-06
6.0438394753435e-06
6.04394764249779e-06
6.04398451925938e-06
6.04399647647797e-06
6.04400008727065e-06
6.04400101358211e-06
6.04400111824998e-06
6.0440009945846e-06
6.04400081754466e-06
6.04400063402828e-06
6.04400044375788e-06
6.0440001993424e-06
6.04399972797099e-06
6.04399845953673e-06
6.0439945869638e-06
6.04398259728034e-06
6.04394634278437e-06
6.04384054880096e-06
6.0435441030387e-06
6.04274903686149e-06
6.04071404337336e-06
6.03575801255898e-06
6.02430882825702e-06
5.9992994774256e-06
5.94780850786496e-06
5.84819264298684e-06
5.66760276106929e-06
5.36152320217992e-06
4.87731769283375e-06
4.16307229029156e-06
3.18106285050774e-06
1.92254353403211e-06
5.79921789827673e-09
2.20867716846572e-11
2.18798654065839e-11
5.76906582444733e-09
1.91739171875719e-06
3.17535433324173e-06
4.15814365343944e-06
4.87403531117112e-06
5.36020186570051e-06
5.66811406076949e-06
5.85016233168245e-06
5.95080158476502e-06
6.00293819129016e-06
6.02831852382663e-06
6.03996372363199e-06
6.0450156921891e-06
6.04709440678491e-06
6.04790805703386e-06
6.04821182368999e-06
6.0483202075865e-06
6.0483571775844e-06
6.04836917905431e-06
6.04837281464562e-06
6.04837375946463e-06
6.04837387898352e-06
6.04837376590784e-06
6.04837359854864e-06
6.0483734234593e-06
6.04837324044249e-06
6.04837300212577e-06
6.04837253568827e-06
6.04837127098698e-06
6.04836740077602e-06
6.04835541121418e-06
6.04831915084422e-06
6.04821333106853e-06
6.0479167940061e-06
6.04712143613344e-06
6.04508558608603e-06
6.04012723023405e-06
6.02867219536089e-06
6.00364917681164e-06
5.9521285475704e-06
5.8524528851841e-06
5.67175096240165e-06
5.36547612730185e-06
4.88095340273833e-06
4.16622614843369e-06
3.18352902682654e-06
1.92408177548205e-06
5.80381220910716e-09
2.21031684560661e-11
2.18859272225528e-11
5.77078684290454e-09
1.91798893062009e-06
3.17634963703158e-06
4.1594602003128e-06
4.87559741114984e-06
5.36194150339544e-06
5.66997495470928e-06
5.8521013950374e-06
5.95278823051986e-06
6.00495214601999e-06
6.03034730280687e-06
6.04200012806209e-06
6.04705582409557e-06
6.04913627766473e-06
6.0499507076683e-06
6.05025481478051e-06
6.05036334722558e-06
6.05040038528435e-06
6.05041242197893e-06
6.05041607901338e-06
6.05041704073697e-06
6.05041717406515e-06
6.05041707206853e-06
6.05041691421625e-06
6.05041674742792e-06
6.0504165715786e-06
6.05041633933371e-06
6.05041587794571e-06
6.05041461750589e-06
6.05041075142614e-06
6.05039876743967e-06
6.0503625172851e-06
6.05025671747637e-06
6.0499602143403e-06
6.04916489364059e-06
6.04712901305779e-06
6.04217030957298e-06
6.03071391974545e-06
6.00568690636842e-06
5.95415624967177e-06
5.85445826921489e-06
5.6737114649803e-06
5.3673541871266e-06
4.88269202181849e-06
4.16774600825285e-06
3.18472808260878e-06
1.92483730804824e-06
5.80609334525158e-09
2.21113785096408e-11
2.1884927371416e-11
5.77052804107711e-09
1.91791680606117e-06
3.1762598036191e-06
4.15937419245596e-06
4.87552724804773e-06
5.36189188778694e-06
5.66994553062789e-06
5.85208893336404e-06
5.95278845674264e-06
6.00496098159809e-06
6.03036150847594e-06
6.04201743748712e-06
6.04707481067434e-06
6.04915611997835e-06
6.04997096797961e-06
6.05027527500821e-06
6.05038390476515e-06
6.05042099395832e-06
6.05043306141827e-06
6.050436739533e-06
6.05043771844683e-06
6.05043786641015e-06
6.05043777617988e-06
6.050437628019e-06
6.05043746933932e-06
6.05043730008885e-06
6.05043707298365e-06
6.05043661543279e-06
6.05043535803618e-06
6.05043149571485e-06
6.05041952028743e-06
6.05038329373782e-06
6.05027755662501e-06
6.04998120807808e-06
6.04918624194412e-06
6.04715112052573e-06
6.04219393492619e-06
6.0307403722144e-06
6.00571824172546e-06
5.95419535537533e-06
5.85450866681987e-06
5.6737766471544e-06
5.3674363903965e-06
4.88279049883825e-06
4.16785500153106e-06
3.18483468958036e-06
1.9249192798243e-06
5.80639626688775e-09
2.21126402371739e-11
2.18767920387662e-11
5.7682717283456e-09
1.91717074917884e-06
3.17507904724822e-06
4.15788007093497e-06
4.87382032477461e-06
5.36004999654278e-06
5.66802431546872e-06
5.8501248517764e-06
5.9508032427754e-06
6.00296644371637e-06
6.02836337023355e-06
6.04001816409327e-06
6.04507531672612e-06
6.04715667476063e-06
6.04797161421498e-06
6.04827599550543e-06
6.04838467687569e-06
6.0484218018413e-06
6.04843389563844e-06
6.04843759413592e-06
6.04843859024484e-06
6.04843875291821e-06
6.04843867455757e-06
6.04843853597957e-06
6.04843838508276e-06
6.04843822187596e-06
6.04843799915419e-06
6.04843754458584e-06
6.04843628961426e-06
6.04843243167958e-06
6.04842046960449e-06
6.04838428368449e-06
6.04827865983608e-06
6.04798260382671e-06
6.04718834711352e-06
6.045154852363e-06
6.04020120265755e-06
6.02875492801251e-06
6.00374702935348e-06
5.95225043910521e-06
5.8526096669848e-06
5.6719533487118e-06
5.36573089143054e-06
4.88125805748498e-06
4.16656275758498e-06
3.18385773461916e-06
1.92433403782853e-06
5.80474374732032e-09
2.21070480415432e-11
2.18603195905371e-11
5.76369180737031e-09
1.91564390033282e-06
3.17263601041533e-06
4.15475880462292e-06
4.8702243765576e-06
5.35614189969799e-06
5.66392425274467e-06
5.84591474410849e-06
5.94653444646655e-06
5.99866858769723e-06
6.02405216303691e-06
6.03570127750271e-06
6.04075620559675e-06
6.04283677341236e-06
6.04365146990942e-06
6.04395579824605e-06
6.04406448500597e-06
6.04410162974334e-06
6.04411374465782e-06
6.04411746208505e-06
6.04411847478092e-06
6.04411865161887e-06
6.04411858475442e-06
6.04411845537253e-06
6.04411831182863e-06
6.04411815419007e-06
6.04411793536968e-06
6.04411748343556e-06
6.04411623109925e-06
6.04411237959867e-06
6.04410043839908e-06
6.0440643160791e-06
6.04395887007449e-06
6.04366327833098e-06
6.04287016631489e-06
6.04083935113504e-06
6.03589166497483e-06
6.02445800200846e-06
5.99947540960517e-06
5.94802691156851e-06
5.84847254450026e-06
5.66796278298019e-06
5.36197482043259e-06
4.87785592666514e-06
4.16366503585743e-06
3.18163990117308e-06
1.92298506108356e-06
5.8008482034504e-09
2.20935782174885e-11
2.18330628982284e-11
5.75612458620623e-09
1.91311903010329e-06
3.16858130783045e-06
4.14956182038691e-06