/*--------------------------------*- C++ -*----------------------------------*\
  =========                 |
  \\      /  F ield         | OpenFOAM: The Open Source CFD Toolbox
   \\    /   O peration     | Website:  https://openfoam.org
    \\  /    A nd           | Version:  10
     \\/     M anipulation  |
\*---------------------------------------------------------------------------*/
FoamFile
{
    format      ascii;
    class       volScalarField;
    location    "5.6";
    object      omega;
}
// * * * * * * * * * * * * * * * * * * * * * * * * * * * * * * * * * * * * * //

dimensions      [0 0 -1 0 0 0 0];

internalField   nonuniform List<scalar> 
2500
(
128059.996839088
128071.865542198
128067.700859188
128064.964669354
128063.438627711
128062.635165242
128062.227101093
128062.027087587
128061.933129061
128061.891465766
128061.873207729
128061.865637428
128061.86259217
128061.861102379
128061.860277557
128061.859618699
128061.859307533
128061.858952931
128061.85856263
128061.858298089
128061.858071073
128061.85787515
128061.857713283
128061.857617279
128061.857513524
128061.857423798
128061.857393516
128061.857380013
128061.857393553
128061.857439861
128061.857519464
128061.857671047
128061.857844489
128061.858067115
128061.85834931
128061.858759921
128061.859474479
128061.860846044
128061.864349581
128061.87240151
128061.891367915
128061.934783469
128062.030259867
128062.231092613
128062.63849273
128063.43569847
128064.955046961
128067.702300527
128071.907429575
128059.955681641
31891.2590492399
14171.996401847
14170.0173270729
14168.7253471192
14167.9787357047
14167.5684014575
14167.3504543943
14167.2391193596
14167.1848422864
14167.1597200509
14167.1486613526
14167.1440403714
14167.1422024365
14167.1414901792
14167.1412151346
14167.1411001069
14167.1410531612
14167.1410230722
14167.1409968383
14167.1409774682
14167.1409604167
14167.1409444831
14167.1409308375
14167.1409218802
14167.14091396
14167.1409068966
14167.140903445
14167.1409011437
14167.1408996061
14167.1409010474
14167.1409048069
14167.1409125439
14167.1409292108
14167.1409572887
14167.1410066328
14167.1411237362
14167.1414292405
14167.1422235816
14167.1442553366
14167.1492138487
14167.1608154943
14167.1867110756
14167.2417677157
14167.3533996673
14167.5703565021
14167.9778536935
14168.7222349159
14170.0215106971
14172.0246165007
31891.2270670035
31780.5135264502
3530.41491465337
50.8283096885115
50.8221718689457
50.8186521468083
50.8167237055814
50.8157001040591
50.8151764983313
50.8149204664266
50.8148014220346
50.814748836614
50.814726785682
50.8147179993136
50.8147146412762
50.8147133967219
50.8147129354846
50.8147127684112
50.8147126901802
50.8147126360911
50.8147125966418
50.8147125600509
50.8147125223654
50.814712488142
50.8147124653144
50.8147124475115
50.8147124312278
50.8147124222706
50.8147124148383
50.8147124064784
50.8147124048616
50.8147124048866
50.8147124131959
50.8147124638155
50.814712562696
50.8147127545599
50.8147132637617
50.8147146662232
50.8147183998302
50.8147279746576
50.8147514147815
50.8148062175748
50.8149283120333
50.8151873856708
50.8157119937882
50.8167314150262
50.8186495963156
50.8221669851269
50.8283572689937
3530.42909482917
31780.6023885079
31687.1513219897
3519.96629003841
50.6781826253949
50.6724821565001
50.6693189595468
50.6676380122204
50.666769195179
50.6663342169668
50.6661250529521
50.6660290407788
50.6659870642069
50.6659696081403
50.6659627058333
50.6659600967551
50.6659591489679
50.6659588154068
50.6659587043824
50.6659586617793
50.6659586374469
50.665958620068
50.6659586020975
50.6659585804654
50.6659585588533
50.6659585443302
50.6659585345396
50.665958525468
50.6659585201178
50.6659585147975
50.6659585072613
50.6659585033688
50.665958499107
50.6659584930964
50.6659585235279
50.6659585940813
50.6659587253285
50.6659590934721
50.6659601413752
50.6659629858869
50.6659703773252
50.6659887088356
50.6660321194962
50.6661301771468
50.6663415391789
50.6667775978618
50.667644443905
50.6693210352092
50.6724929570016
50.6782648828685
3519.98581543123
31687.3991101744
31617.7732227193
3512.35694581869
50.5705078127685
50.5661410555749
50.5637989268543
50.5625928450248
50.561985980517
50.5616883946582
50.5615474322361
50.5614833959116
50.5614555969509
50.5614440921536
50.5614395608773
50.5614378576397
50.561437246804
50.561437040418
50.5614369781236
50.5614369594711
50.5614369516826
50.5614369466776
50.5614369402927
50.5614369299119
50.5614369176391
50.5614369093266
50.5614369048414
50.5614369007224
50.5614368980678
50.5614368948391
50.5614368895479
50.5614368856548
50.5614368801134
50.5614368694142
50.5614368849081
50.5614369264214
50.5614370018735
50.5614372275836
50.561437886373
50.5614396991216
50.5614444569726
50.561456367866
50.5614848465952
50.5615498894345
50.5616919907861
50.5619902386674
50.562596452002
50.563802167642
50.5661583492884
50.570598395261
3512.37744271653
31618.1137412897
31571.5220328528
3507.40105267301
50.5014478059253
50.4985447264098
50.4970376869336
50.4962847200987
50.4959154412545
50.4957378194686
50.495654778362
50.4956173589606
50.4956011871936
50.4955945085674
50.4955918815047
50.4955908965984
50.4955905468482
50.4955904327957
50.4955904021711
50.4955903964146
50.4955903956127
50.4955903958459
50.4955903955305
50.4955903918912
50.4955903856483
50.4955903814089
50.49559037995
50.495590378609
50.4955903775235
50.4955903758248
50.4955903726833
50.4955903696592
50.49559036473
50.4955903549875
50.4955903613284
50.4955903818545
50.4955904195714
50.4955905432954
50.4955909116848
50.4955919344683
50.4955946390122
50.4956014530275
50.4956178549707
50.4956556277067
50.4957390667482
50.4959168690651
50.4962858366158
50.4970396350618
50.4985596927103
50.5015237140477
3507.41861009942
31571.8630557753
31543.4855392706
3504.47197035299
50.4612447523201
50.4595211543518
50.4586533848582
50.4582319393625
50.458030186943
50.457934866714
50.4578908130684
50.4578710860629
50.4578625816246
50.4578590699544
50.4578576878609
50.4578571701884
50.4578569879573
50.4578569307483
50.4578569181035
50.4578569180705
50.45785691951
50.4578569203392
50.4578569211387
50.4578569208099
50.4578569179914
50.4578569161349
50.4578569161312
50.4578569158907
50.4578569155227
50.4578569148304
50.4578569131696
50.4578569111442
50.457856907588
50.4578569007438
50.4578569024504
50.4578569107635
50.4578569274528
50.4578569898585
50.4578571781828
50.4578577036501
50.4578591007325
50.4578626345389
50.4578711763824
50.4578909630192
50.4579350570074
50.4580302709565
50.4582316722552
50.4586536962048
50.4595304936953
50.461297068693
3504.48478548457
31543.7641560813
31527.8629447901
3502.88253193637
50.4397492763948
50.4388178590829
50.4383620766519
50.4381464882403
50.4380456046284
50.4379987324143
50.4379772912225
50.4379677366438
50.4379636216607
50.4379619202822
50.4379612494499
50.4379609982037
50.4379609105056
50.437960884361
50.4379608798922
50.4379608809691
50.4379608826129
50.4379608837142
50.437960884355
50.4379608845345
50.4379608836696
50.4379608831096
50.4379608835508
50.4379608836554
50.4379608835257
50.4379608832252
50.4379608824011
50.4379608811841
50.4379608789862
50.4379608752252
50.4379608747809
50.437960877055
50.4379608840596
50.4379609134078
50.4379610027949
50.437961252919
50.4379619204726
50.4379636121334
50.4379677092115
50.4379772345002
50.4379986053521
50.4380452855455
50.4381457812191
50.4383614430627
50.4388222951354
50.439780196256
3502.89074006662
31528.0587455149
31519.7879608147
3502.08301672773
50.4290911272911
50.42862660891
50.4284052194865
50.4283030388432
50.4282562380763
50.4282348346874
50.4282251351221
50.4282208293559
50.4282189747293
50.4282182061247
50.4282179022652
50.4282177884287
50.4282177489995
50.4282177378865
50.4282177366311
50.4282177376287
50.4282177388147
50.4282177396517
50.4282177400529
50.4282177402153
50.4282177401139
50.4282177401496
50.428217740485
50.4282177406445
50.4282177405961
50.4282177404337
50.4282177400385
50.4282177393633
50.4282177381482
50.4282177362392
50.428217735638
50.4282177359225
50.4282177383795
50.4282177513193
50.42821779113
50.428217902778
50.4282182014741
50.4282189584567
50.4282207918245
50.4282250613611
50.4282346877383
50.4282559234284
50.4283023878668
50.4284043560849
50.4286281125952
50.4291071948986
3502.08772834812
31519.9100374989
31515.886693661
3501.70721026579
50.4241510403952
50.4239349422436
50.4238344433151
50.4237891042911
50.423768754123
50.4237595864483
50.4237554678082
50.4237536451142
50.4237528593154
50.4237525326659
50.4237524031141
50.423752354564
50.4237523379271
50.423752333552
50.4237523332933
50.4237523338803
50.4237523345766
50.4237523350853
50.4237523353739
50.4237523355275
50.4237523355574
50.4237523356448
50.4237523358382
50.4237523359444
50.4237523359205
50.42375233583
50.4237523356365
50.4237523352842
50.4237523346656
50.423752333752
50.4237523333799
50.4237523332925
50.4237523340002
50.4237523392669
50.4237523560311
50.4237524031907
50.4237525294997
50.4237528491362
50.4237536219607
50.4237554215419
50.4237594921942
50.423768547769
50.4237886587468
50.4238337294639
50.4239351386936
50.4241584941595
3501.70967249279
31515.955614605
31514.113481547
3501.54102811034
50.4219962958907
50.4219017177653
50.4218587254973
50.4218397369002
50.4218313754056
50.4218276625538
50.4218260081889
50.4218252779262
50.4218249626416
50.421824831119
50.421824778772
50.4218247591495
50.421824752506
50.4218247508628
50.4218247508546
50.4218247511728
50.4218247515303
50.4218247517972
50.4218247519616
50.4218247520541
50.4218247520943
50.4218247521567
50.4218247522477
50.4218247522965
50.4218247522774
50.4218247522249
50.4218247521278
50.4218247519505
50.4218247516527
50.4218247512329
50.4218247510167
50.4218247509235
50.4218247510936
50.4218247530961
50.4218247598044
50.421824778785
50.4218248296227
50.4218249579239
50.421825267156
50.4218259860313
50.4218276149142
50.4218312640084
50.4218394790909
50.4218582556769
50.4219015146933
50.4219994070187
3501.54221381254
31514.1492370055
31513.3510875132
3501.47150618856
50.4211070146615
50.4210678005455
50.4210503506506
50.4210427941004
50.421039526204
50.4210380951273
50.4210374624821
50.4210371838414
50.4210370633252
50.4210370128597
50.4210369926991
50.421036985139
50.4210369826086
50.421036982016
50.4210369820457
50.4210369821973
50.4210369823603
50.421036982483
50.4210369825607
50.4210369826039
50.4210369826254
50.4210369826536
50.4210369826865
50.4210369826997
50.4210369826815
50.4210369826482
50.4210369825955
50.4210369825059
50.4210369823658
50.4210369821768
50.4210369820584
50.4210369819901
50.4210369820162
50.4210369827421
50.4210369853
50.421036992616
50.4210370121998
50.4210370614463
50.4210371796286
50.4210374535411
50.421038074387
50.4210394731545
50.4210426613118
50.4210500835125
50.4210675707907
50.4211081834533
3501.47203738876
31513.3683231436
31513.0396487987
3501.44387009087
50.4207583029743
50.4207428109973
50.4207360530544
50.420733179874
50.420731958336
50.4207314305
50.4207311989325
50.4207310971461
50.420731053034
50.4207310344886
50.4207310270504
50.4207310242578
50.4207310233326
50.420731023124
50.4207310231408
50.4207310232025
50.4207310232668
50.420731023314
50.4207310233423
50.4207310233553
50.4207310233591
50.4207310233641
50.4207310233683
50.4207310233638
50.4207310233459
50.4207310233216
50.4207310232889
50.4207310232407
50.4207310231725
50.4207310230856
50.4207310230216
50.420731022977
50.420731022968
50.4207310232143
50.4207310241461
50.4207310268548
50.4207310341051
50.4207310522652
50.4207310956244
50.4207311957065
50.4207314223386
50.4207319351979
50.4207331172051
50.4207359165532
50.4207426535418
50.4207586940192
3501.44409318959
31513.0474362078
31512.9184253174
3501.4334054727
50.4206281210556
50.4206222613751
50.4206197523394
50.4206187037049
50.4206182649633
50.4206180777969
50.4206179962933
50.4206179605358
50.4206179450063
50.4206179384499
50.4206179358081
50.4206179348127
50.4206179344832
50.4206179344079
50.4206179344108
50.4206179344293
50.4206179344476
50.4206179344589
50.4206179344625
50.4206179344595
50.4206179344525
50.4206179344451
50.4206179344365
50.4206179344241
50.4206179344065
50.4206179343861
50.4206179343622
50.4206179343324
50.4206179342951
50.420617934251
50.420617934214
50.4206179341843
50.4206179341683
50.4206179342421
50.4206179345633
50.4206179355258
50.4206179381108
50.420617944566
50.420617959898
50.4206179951173
50.4206180747128
50.420618255415
50.4206186760228
50.4206196881182
50.4206221733584
50.4206282336645
3501.43349385578
31512.9217465216
31512.8734807997
3501.42963789924
50.4205819947726
50.4205798641726
50.4205789675652
50.4205785987512
50.4205784467414
50.4205783826858
50.4205783549937
50.4205783428665
50.4205783375877
50.4205783353484
50.4205783344399
50.420578334094
50.4205783339763
50.4205783339451
50.4205783339398
50.4205783339391
50.4205783339377
50.4205783339332
50.4205783339255
50.4205783339148
50.4205783339024
50.4205783338893
50.4205783338753
50.4205783338598
50.4205783338422
50.4205783338235
50.4205783338035
50.4205783337813
50.4205783337566
50.4205783337296
50.4205783337048
50.4205783336827
50.4205783336659
50.4205783336798
50.4205783337804
50.4205783341051
50.4205783349909
50.4205783372052
50.4205783424439
50.4205783544203
50.4205783814159
50.4205784428376
50.4205785870539
50.4205789392177
50.4205798206196
50.4205820197279
3501.42967108804
31512.8748255526
31512.857753497
3501.42836681384
50.4205667709701
50.4205660237015
50.4205657142672
50.4205655888526
50.420565537882
50.4205655166538
50.4205655075414
50.4205655035576
50.4205655018187
50.4205655010761
50.4205655007708
50.4205655006507
50.4205655006056
50.4205655005884
50.420565500579
50.4205655005705
50.4205655005611
50.4205655005501
50.4205655005376
50.4205655005237
50.4205655005087
50.4205655004932
50.4205655004772
50.4205655004605
50.4205655004429
50.420565500425
50.4205655004066
50.4205655003875
50.4205655003676
50.4205655003471
50.4205655003274
50.4205655003088
50.4205655002922
50.4205655002861
50.4205655003095
50.4205655004088
50.4205655006964
50.4205655014265
50.420565503156
50.4205655070981
50.4205655159629
50.4205655361649
50.4205655839655
50.4205657022895
50.4205660038413
50.4205667729022
3501.42837866751
31512.8582728866
31512.8527582811
3501.42798880164
50.4205624484782
50.4205621949322
50.4205620915024
50.4205620501555
50.4205620335707
50.4205620267408
50.4205620238292
50.4205620225582
50.4205620220008
50.4205620217596
50.420562021657
50.4205620216128
50.4205620215918
50.4205620215788
50.4205620215677
50.4205620215562
50.4205620215437
50.4205620215303
50.4205620215158
50.4205620215005
50.4205620214846
50.4205620214682
50.4205620214514
50.4205620214343
50.4205620214168
50.4205620213992
50.4205620213814
50.4205620213635
50.4205620213454
50.4205620213273
50.4205620213096
50.4205620212924
50.4205620212761
50.4205620212635
50.4205620212607
50.4205620212828
50.4205620213663
50.420562021593
50.4205620221407
50.4205620233944
50.4205620262146
50.4205620326558
50.4205620480088
50.4205620865022
50.4205621863136
50.420562446271
3501.42799283209
31512.852950355
31512.8515566084
3501.42791844171
50.4205618284138
50.4205617449873
50.4205617114239
50.4205616981793
50.4205616929326
50.4205616907958
50.4205616898911
50.4205616894962
50.4205616893211
50.4205616892427
50.420561689206
50.4205616891865
50.4205616891733
50.4205616891616
50.4205616891498
50.4205616891371
50.4205616891236
50.4205616891092
50.420561689094
50.4205616890783
50.4205616890619
50.4205616890452
50.4205616890282
50.4205616890109
50.4205616889935
50.420561688976
50.4205616889584
50.4205616889409
50.4205616889235
50.4205616889063
50.4205616888893
50.4205616888728
50.4205616888567
50.4205616888419
50.4205616888304
50.4205616888269
50.420561688843
50.420561688904
50.4205616890652
50.4205616894455
50.4205616903108
50.4205616923003
50.4205616970841
50.4205617092331
50.4205617412698
50.4205618264113
3501.42791973886
31512.8516247747
31512.8516492382
3501.42795044898
50.4205624225745
50.4205623959005
50.4205623853072
50.4205623811791
50.420562379564
50.420562378914
50.4205623786406
50.4205623785206
50.4205623784656
50.4205623784383
50.4205623784225
50.4205623784108
50.4205623783999
50.4205623783886
50.4205623783765
50.4205623783634
50.4205623783495
50.4205623783348
50.4205623783194
50.4205623783035
50.420562378287
50.4205623782702
50.4205623782531
50.4205623782358
50.4205623782184
50.4205623782009
50.4205623781835
50.4205623781663
50.4205623781491
50.4205623781322
50.4205623781155
50.4205623780991
50.4205623780832
50.4205623780678
50.4205623780535
50.4205623780418
50.4205623780362
50.4205623780442
50.4205623780826
50.4205623781872
50.4205623784379
50.4205623790284
50.4205623804715
50.4205623841936
50.4205623941819
50.4205624212559
3501.42795083295
31512.8516724303
31512.8521692477
3501.42801544332
50.4205634022591
50.4205633939599
50.4205633907044
50.4205633894524
50.4205633889695
50.4205633887779
50.4205633886976
50.4205633886614
50.4205633886429
50.4205633886312
50.4205633886216
50.4205633886122
50.420563388602
50.4205633885908
50.4205633885786
50.4205633885653
50.4205633885513
50.4205633885365
50.420563388521
50.420563388505
50.4205633884885
50.4205633884717
50.4205633884546
50.4205633884373
50.4205633884199
50.4205633884026
50.4205633883852
50.420563388368
50.420563388351
50.4205633883342
50.4205633883176
50.4205633883014
50.4205633882855
50.4205633882699
50.4205633882549
50.4205633882407
50.4205633882284
50.4205633882201
50.4205633882208
50.4205633882408
50.4205633883036
50.4205633884665
50.4205633888832
50.4205633899868
50.420563393013
50.420563401383
3501.42801553482
31512.8521767346
31512.852826158
3501.42809075651
50.4205645007269
50.4205644982132
50.4205644972395
50.4205644968711
50.4205644967318
50.4205644966776
50.4205644966546
50.420564496643
50.4205644966351
50.4205644966279
50.42056449662
50.4205644966111
50.420564496601
50.4205644965898
50.4205644965775
50.4205644965642
50.4205644965501
50.4205644965353
50.4205644965197
50.4205644965037
50.4205644964873
50.4205644964704
50.4205644964533
50.4205644964361
50.4205644964187
50.4205644964014
50.4205644963841
50.420564496367
50.42056449635
50.4205644963333
50.4205644963168
50.4205644963007
50.4205644962849
50.4205644962693
50.4205644962542
50.4205644962393
50.4205644962252
50.4205644962122
50.4205644962017
50.4205644961967
50.420564496204
50.4205644962401
50.42056449635
50.4205644966624
50.4205644975507
50.4205645000664
3501.4280907579
31512.8528283487
31512.8535256996
3501.42816920978
50.4205656347845
50.4205656340449
50.4205656337625
50.4205656336585
50.4205656336204
50.420565633606
50.4205656335991
50.4205656335942
50.420565633589
50.4205656335828
50.4205656335752
50.4205656335664
50.4205656335562
50.4205656335449
50.4205656335325
50.4205656335191
50.420565633505
50.4205656334901
50.4205656334746
50.4205656334586
50.4205656334421
50.4205656334253
50.4205656334083
50.420565633391
50.4205656333737
50.4205656333564
50.4205656333392
50.4205656333221
50.4205656333052
50.4205656332886
50.4205656332722
50.4205656332561
50.4205656332404
50.420565633225
50.4205656332099
50.420565633195
50.4205656331805
50.4205656331664
50.4205656331531
50.4205656331412
50.4205656331329
50.4205656331328
50.4205656331541
50.420565633234
50.4205656334832
50.4205656342155
3501.42816918452
31512.8535261647
31512.8542381717
3501.42824859437
50.4205667792315
50.4205667790223
50.4205667789439
50.4205667789164
50.4205667789068
50.420566778903
50.4205667789002
50.4205667788966
50.4205667788919
50.4205667788856
50.4205667788779
50.4205667788689
50.4205667788586
50.4205667788472
50.4205667788347
50.4205667788213
50.4205667788071
50.4205667787922
50.4205667787767
50.4205667787606
50.4205667787442
50.4205667787274
50.4205667787103
50.4205667786932
50.4205667786759
50.4205667786586
50.4205667786415
50.4205667786244
50.4205667786076
50.420566778591
50.4205667785747
50.4205667785588
50.4205667785432
50.4205667785279
50.4205667785129
50.4205667784983
50.4205667784838
50.4205667784698
50.420566778456
50.4205667784427
50.4205667784306
50.4205667784211
50.4205667784179
50.420566778432
50.4205667784954
50.4205667786985
3501.42824856146
31512.8542380886
31512.8549544705
3501.42832824867
50.4205679266393
50.4205679265843
50.4205679265641
50.4205679265576
50.4205679265553
50.4205679265537
50.4205679265513
50.4205679265477
50.4205679265425
50.420567926536
50.4205679265281
50.4205679265187
50.4205679265083
50.4205679264967
50.4205679264842
50.4205679264707
50.4205679264564
50.4205679264415
50.420567926426
50.4205679264099
50.4205679263935
50.4205679263767
50.4205679263597
50.4205679263425
50.4205679263253
50.4205679263081
50.420567926291
50.420567926274
50.4205679262573
50.4205679262408
50.4205679262246
50.4205679262087
50.4205679261932
50.4205679261781
50.4205679261633
50.4205679261489
50.4205679261348
50.420567926121
50.4205679261075
50.4205679260945
50.420567926082
50.4205679260706
50.4205679260615
50.420567926058
50.4205679260694
50.4205679261196
3501.42832821368
31512.854954219
31512.8556718762
3501.42840797938
50.4205690748722
50.4205690748606
50.4205690748561
50.4205690748545
50.4205690748534
50.4205690748517
50.4205690748488
50.4205690748445
50.4205690748389
50.420569074832
50.4205690748237
50.4205690748141
50.4205690748035
50.4205690747917
50.4205690747791
50.4205690747655
50.4205690747512
50.4205690747362
50.4205690747207
50.4205690747046
50.4205690746882
50.4205690746714
50.4205690746545
50.4205690746373
50.4205690746202
50.420569074603
50.4205690745859
50.420569074569
50.4205690745523
50.4205690745359
50.4205690745198
50.4205690745041
50.4205690744887
50.4205690744738
50.4205690744593
50.4205690744451
50.4205690744314
50.420569074418
50.420569074405
50.4205690743925
50.4205690743806
50.4205690743695
50.4205690743597
50.4205690743523
50.4205690743501
50.4205690743577
3501.42840794386
31512.8556715754
31512.8563895955
3501.42848773132
50.420570223331
50.4205702233307
50.4205702233297
50.4205702233286
50.420570223327
50.4205702233245
50.4205702233208
50.4205702233159
50.4205702233097
50.4205702233023
50.4205702232936
50.4205702232838
50.4205702232729
50.420570223261
50.4205702232482
50.4205702232346
50.4205702232202
50.4205702232052
50.4205702231896
50.4205702231735
50.4205702231571
50.4205702231403
50.4205702231234
50.4205702231063
50.4205702230892
50.4205702230721
50.4205702230551
50.4205702230383
50.4205702230216
50.4205702230053
50.4205702229893
50.4205702229737
50.4205702229585
50.4205702229438
50.4205702229295
50.4205702229156
50.4205702229022
50.4205702228894
50.420570222877
50.4205702228652
50.420570222854
50.4205702228437
50.4205702228346
50.4205702228271
50.420570222822
50.4205702228185
3501.42848769569
31512.8563892779
31512.8571074021
3501.42856748908
50.4205713718507
50.4205713718528
50.4205713718519
50.4205713718502
50.4205713718476
50.4205713718442
50.4205713718397
50.4205713718341
50.4205713718273
50.4205713718194
50.4205713718104
50.4205713718003
50.4205713717891
50.4205713717771
50.4205713717641
50.4205713717504
50.4205713717359
50.4205713717209
50.4205713717053
50.4205713716892
50.4205713716728
50.420571371656
50.4205713716391
50.420571371622
50.420571371605
50.4205713715879
50.420571371571
50.4205713715542
50.4205713715376
50.4205713715214
50.4205713715056
50.4205713714901
50.4205713714751
50.4205713714606
50.4205713714465
50.4205713714329
50.42057137142
50.4205713714076
50.4205713713958
50.4205713713847
50.4205713713744
50.420571371365
50.4205713713569
50.4205713713502
50.4205713713451
50.4205713713393
3501.42856745341
31512.8571070817
31512.857825233
3501.42864724844
50.4205725203871
50.4205725203891
50.4205725203875
50.4205725203847
50.4205725203812
50.4205725203768
50.4205725203715
50.4205725203652
50.4205725203579
50.4205725203495
50.42057252034
50.4205725203296
50.4205725203182
50.420572520306
50.4205725202929
50.420572520279
50.4205725202645
50.4205725202494
50.4205725202337
50.4205725202176
50.4205725202012
50.4205725201845
50.4205725201676
50.4205725201506
50.4205725201335
50.4205725201165
50.4205725200997
50.420572520083
50.4205725200665
50.4205725200504
50.4205725200347
50.4205725200194
50.4205725200045
50.4205725199902
50.4205725199764
50.4205725199632
50.4205725199506
50.4205725199387
50.4205725199275
50.4205725199171
50.4205725199076
50.4205725198992
50.4205725198921
50.4205725198864
50.4205725198821
50.4205725198764
3501.42864721283
31512.8578249115
31512.8585430706
3501.42872700826
50.4205736689284
50.4205736689296
50.4205736689271
50.4205736689233
50.4205736689187
50.4205736689134
50.4205736689073
50.4205736689003
50.4205736688924
50.4205736688836
50.4205736688737
50.420573668863
50.4205736688514
50.4205736688389
50.4205736688257
50.4205736688117
50.4205736687971
50.4205736687819
50.4205736687662
50.4205736687501
50.4205736687337
50.4205736687169
50.4205736687
50.4205736686831
50.4205736686661
50.4205736686492
50.4205736686323
50.4205736686157
50.4205736685994
50.4205736685834
50.4205736685678
50.4205736685526
50.420573668538
50.4205736685239
50.4205736685104
50.4205736684975
50.4205736684853
50.4205736684738
50.4205736684632
50.4205736684535
50.4205736684448
50.4205736684373
50.4205736684312
50.4205736684266
50.4205736684232
50.4205736684183
3501.42872697268
31512.8585427502
31512.8592609105
3501.42880676823
50.4205748174715
50.4205748174718
50.4205748174682
50.4205748174634
50.4205748174579
50.4205748174517
50.4205748174448
50.4205748174372
50.4205748174287
50.4205748174193
50.4205748174091
50.420574817398
50.4205748173861
50.4205748173735
50.4205748173601
50.420574817346
50.4205748173313
50.420574817316
50.4205748173003
50.4205748172842
50.4205748172677
50.420574817251
50.4205748172342
50.4205748172172
50.4205748172003
50.4205748171834
50.4205748171666
50.4205748171501
50.4205748171338
50.420574817118
50.4205748171025
50.4205748170875
50.4205748170731
50.4205748170592
50.420574817046
50.4205748170334
50.4205748170216
50.4205748170106
50.4205748170006
50.4205748169916
50.4205748169837
50.4205748169771
50.4205748169719
50.4205748169684
50.4205748169659
50.4205748169619
3501.42880673272
31512.8592605901
31512.8599787512
3501.42888652829
50.4205759660155
50.4205759660148
50.4205759660103
50.4205759660044
50.420575965998
50.4205759659909
50.4205759659833
50.4205759659749
50.4205759659659
50.4205759659561
50.4205759659454
50.4205759659341
50.4205759659219
50.4205759659091
50.4205759658955
50.4205759658812
50.4205759658665
50.4205759658511
50.4205759658353
50.4205759658192
50.4205759658028
50.420575965786
50.4205759657692
50.4205759657523
50.4205759657354
50.4205759657186
50.4205759657019
50.4205759656855
50.4205759656693
50.4205759656536
50.4205759656382
50.4205759656235
50.4205759656092
50.4205759655956
50.4205759655826
50.4205759655703
50.420575965559
50.4205759655485
50.420575965539
50.4205759655306
50.4205759655235
50.4205759655177
50.4205759655135
50.4205759655109
50.4205759655095
50.4205759655065
3501.42888649277
31512.859978431
31512.8606965925
3501.4289662884
50.4205771145603
50.4205771145584
50.420577114553
50.4205771145461
50.4205771145388
50.4205771145309
50.4205771145224
50.4205771145135
50.4205771145039
50.4205771144936
50.4205771144826
50.4205771144709
50.4205771144584
50.4205771144454
50.4205771144316
50.4205771144173
50.4205771144024
50.420577114387
50.4205771143712
50.420577114355
50.4205771143385
50.4205771143218
50.420577114305
50.4205771142882
50.4205771142713
50.4205771142545
50.4205771142379
50.4205771142216
50.4205771142056
50.4205771141899
50.4205771141747
50.4205771141601
50.420577114146
50.4205771141326
50.4205771141199
50.420577114108
50.4205771140971
50.4205771140871
50.4205771140781
50.4205771140704
50.420577114064
50.420577114059
50.4205771140557
50.4205771140541
50.4205771140537
50.4205771140517
3501.42896625286
31512.8606962703
31512.8614144343
3501.42904604855
50.4205782631057
50.4205782631027
50.4205782630962
50.4205782630883
50.4205782630801
50.4205782630714
50.4205782630622
50.4205782630526
50.4205782630425
50.4205782630317
50.4205782630203
50.4205782630083
50.4205782629956
50.4205782629823
50.4205782629684
50.4205782629539
50.420578262939
50.4205782629235
50.4205782629076
50.4205782628914
50.420578262875
50.4205782628582
50.4205782628415
50.4205782628246
50.4205782628078
50.4205782627911
50.4205782627746
50.4205782627583
50.4205782627424
50.4205782627269
50.4205782627119
50.4205782626974
50.4205782626835
50.4205782626704
50.420578262658
50.4205782626464
50.4205782626358
50.4205782626263
50.4205782626179
50.4205782626107
50.420578262605
50.4205782626009
50.4205782625984
50.4205782625979
50.4205782625984
50.4205782625975
3501.42904601308
31512.8614141134
31512.8621322765
3501.42912580875
50.4205794116515
50.4205794116474
50.4205794116398
50.4205794116309
50.4205794116218
50.4205794116123
50.4205794116025
50.4205794115923
50.4205794115816
50.4205794115704
50.4205794115586
50.4205794115462
50.4205794115333
50.4205794115198
50.4205794115057
50.4205794114911
50.420579411476
50.4205794114605
50.4205794114446
50.4205794114284
50.4205794114119
50.4205794113952
50.4205794113784
50.4205794113616
50.4205794113449
50.4205794113282
50.4205794113118
50.4205794112956
50.4205794112798
50.4205794112644
50.4205794112495
50.4205794112352
50.4205794112215
50.4205794112086
50.4205794111965
50.4205794111853
50.420579411175
50.4205794111659
50.4205794111581
50.4205794111516
50.4205794111465
50.4205794111432
50.4205794111415
50.420579411142
50.4205794111435
50.4205794111438
3501.42912577335
31512.8621319569
31512.8628501192
3501.429205569
50.4205805601979
50.4205805601924
50.4205805601837
50.4205805601739
50.4205805601638
50.4205805601536
50.4205805601431
50.4205805601323
50.4205805601211
50.4205805601094
50.4205805600973
50.4205805600847
50.4205805600715
50.4205805600577
50.4205805600435
50.4205805600288
50.4205805600136
50.420580559998
50.420580559982
50.4205805599657
50.4205805599493
50.4205805599326
50.4205805599159
50.4205805598991
50.4205805598824
50.4205805598658
50.4205805598494
50.4205805598333
50.4205805598176
50.4205805598023
50.4205805597876
50.4205805597735
50.42058055976
50.4205805597473
50.4205805597354