/*--------------------------------*- C++ -*----------------------------------*\
  =========                 |
  \\      /  F ield         | OpenFOAM: The Open Source CFD Toolbox
   \\    /   O peration     | Website:  https://openfoam.org
    \\  /    A nd           | Version:  10
     \\/     M anipulation  |
\*---------------------------------------------------------------------------*/
FoamFile
{
    format      ascii;
    class       volScalarField;
    location    "5.6";
    object      p;
}
// * * * * * * * * * * * * * * * * * * * * * * * * * * * * * * * * * * * * * //

dimensions      [1 -1 -2 0 0 0 0];

internalField   nonuniform List<scalar> 
2500
(
100090.407485953
100090.407487059
100090.40748805
100090.407488885
100090.407489412
100090.407489756
100090.407489963
100090.407490091
100090.407490168
100090.407490217
100090.40749025
100090.407490273
100090.407490292
100090.407490309
100090.407490325
100090.407490341
100090.407490357
100090.407490375
100090.407490393
100090.407490412
100090.407490432
100090.407490453
100090.407490475
100090.407490497
100090.40749052
100090.407490544
100090.407490568
100090.407490592
100090.407490617
100090.407490641
100090.407490666
100090.40749069
100090.407490714
100090.407490737
100090.407490759
100090.40749078
100090.407490799
100090.407490816
100090.407490827
100090.407490832
100090.407490826
100090.4074908
100090.407490743
100090.407490634
100090.407490443
100090.407490112
100090.407489595
100090.407488761
100090.40748776
100090.407486654
100090.405238078
100090.405238928
100090.405239709
100090.405240421
100090.405240882
100090.405241193
100090.405241382
100090.4052415
100090.405241573
100090.40524162
100090.405241651
100090.405241674
100090.405241693
100090.40524171
100090.405241726
100090.405241742
100090.405241759
100090.405241776
100090.405241794
100090.405241814
100090.405241834
100090.405241855
100090.405241877
100090.405241899
100090.405241922
100090.405241946
100090.40524197
100090.405241994
100090.405242019
100090.405242043
100090.405242068
100090.405242092
100090.405242115
100090.405242139
100090.405242161
100090.405242182
100090.405242201
100090.405242217
100090.405242229
100090.405242234
100090.405242229
100090.405242206
100090.405242154
100090.405242054
100090.40524188
100090.405241583
100090.40524113
100090.40524042
100090.40523963
100090.405238783
100090.40298119
100090.402981762
100090.402982199
100090.402982678
100090.402982995
100090.402983223
100090.402983366
100090.402983459
100090.402983518
100090.402983557
100090.402983585
100090.402983607
100090.402983625
100090.402983641
100090.402983657
100090.402983674
100090.40298369
100090.402983708
100090.402983726
100090.402983746
100090.402983766
100090.402983787
100090.402983809
100090.402983831
100090.402983854
100090.402983878
100090.402983902
100090.402983926
100090.402983951
100090.402983975
100090.402984
100090.402984024
100090.402984048
100090.402984071
100090.402984093
100090.402984114
100090.402984133
100090.402984149
100090.402984162
100090.402984169
100090.402984167
100090.402984151
100090.402984113
100090.402984039
100090.402983912
100090.402983696
100090.402983387
100090.40298291
100090.402982467
100090.40298189
100090.400716793
100090.400717045
100090.40071716
100090.400717381
100090.400717531
100090.400717656
100090.40071774
100090.4007178
100090.400717842
100090.400717872
100090.400717895
100090.400717915
100090.400717932
100090.400717948
100090.400717963
100090.40071798
100090.400717996
100090.400718014
100090.400718032
100090.400718052
100090.400718072
100090.400718093
100090.400718115
100090.400718138
100090.400718161
100090.400718185
100090.400718209
100090.400718233
100090.400718257
100090.400718282
100090.400718306
100090.40071833
100090.400718354
100090.400718377
100090.400718399
100090.40071842
100090.40071844
100090.400718457
100090.400718471
100090.40071848
100090.400718483
100090.400718476
100090.400718456
100090.400718414
100090.400718346
100090.400718233
100090.400718091
100090.400717874
100090.400717756
100090.400717495
100090.398446508
100090.398446495
100090.398446398
100090.398446419
100090.398446439
100090.398446479
100090.398446514
100090.398446545
100090.398446571
100090.398446592
100090.398446611
100090.398446628
100090.398446643
100090.398446659
100090.398446674
100090.39844669
100090.398446707
100090.398446724
100090.398446743
100090.398446762
100090.398446783
100090.398446804
100090.398446826
100090.398446848
100090.398446872
100090.398446895
100090.398446919
100090.398446944
100090.398446968
100090.398446993
100090.398447017
100090.398447041
100090.398447065
100090.398447088
100090.398447111
100090.398447132
100090.398447152
100090.398447169
100090.398447185
100090.398447197
100090.398447205
100090.398447207
100090.398447203
100090.39844719
100090.398447171
100090.398447143
100090.398447132
100090.398447116
100090.398447214
100090.398447218
100090.396172033
100090.396171856
100090.396171651
100090.396171544
100090.396171479
100090.396171459
100090.396171458
100090.396171466
100090.396171479
100090.396171493
100090.396171507
100090.396171522
100090.396171536
100090.39617155
100090.396171565
100090.396171581
100090.396171598
100090.396171615
100090.396171634
100090.396171653
100090.396171673
100090.396171695
100090.396171717
100090.396171739
100090.396171763
100090.396171786
100090.396171811
100090.396171835
100090.396171859
100090.396171884
100090.396171908
100090.396171933
100090.396171956
100090.39617198
100090.396172002
100090.396172024
100090.396172044
100090.396172063
100090.39617208
100090.396172094
100090.396172107
100090.396172117
100090.396172126
100090.396172136
100090.396172153
100090.396172185
100090.39617226
100090.396172373
100090.396172583
100090.396172755
100090.3938949
100090.393894656
100090.39389442
100090.393894248
100090.393894138
100090.393894082
100090.393894056
100090.393894049
100090.393894052
100090.393894059
100090.39389407
100090.393894081
100090.393894094
100090.393894108
100090.393894122
100090.393894138
100090.393894154
100090.393894171
100090.39389419
100090.393894209
100090.39389423
100090.393894251
100090.393894273
100090.393894296
100090.393894319
100090.393894343
100090.393894367
100090.393894392
100090.393894416
100090.393894441
100090.393894465
100090.393894489
100090.393894513
100090.393894537
100090.393894559
100090.393894581
100090.393894602
100090.393894622
100090.39389464
100090.393894658
100090.393894674
100090.393894691
100090.39389471
100090.393894736
100090.393894778
100090.393894847
100090.393894967
100090.393895146
100090.393895389
100090.393895632
100090.391616242
100090.391616
100090.391615776
100090.391615585
100090.391615458
100090.391615383
100090.391615343
100090.391615324
100090.39161532
100090.391615322
100090.391615329
100090.391615338
100090.391615349
100090.391615362
100090.391615376
100090.391615391
100090.391615407
100090.391615425
100090.391615443
100090.391615463
100090.391615483
100090.391615504
100090.391615526
100090.391615549
100090.391615573
100090.391615596
100090.391615621
100090.391615645
100090.39161567
100090.391615694
100090.391615719
100090.391615743
100090.391615767
100090.391615791
100090.391615814
100090.391615836
100090.391615858
100090.391615878
100090.391615898
100090.391615918
100090.391615938
100090.39161596
100090.391615987
100090.391616024
100090.391616081
100090.391616169
100090.391616307
100090.391616506
100090.391616737
100090.391616982
100090.38933679
100090.389336583
100090.38933639
100090.389336207
100090.389336079
100090.389335997
100090.389335949
100090.389335924
100090.389335913
100090.389335911
100090.389335915
100090.389335923
100090.389335933
100090.389335944
100090.389335958
100090.389335973
100090.389335989
100090.389336006
100090.389336024
100090.389336044
100090.389336064
100090.389336086
100090.389336108
100090.389336131
100090.389336154
100090.389336178
100090.389336202
100090.389336227
100090.389336251
100090.389336276
100090.3893363
100090.389336325
100090.389336349
100090.389336373
100090.389336396
100090.389336419
100090.389336441
100090.389336463
100090.389336484
100090.389336506
100090.389336529
100090.389336556
100090.389336588
100090.389336633
100090.389336697
100090.389336793
100090.389336931
100090.389337123
100090.389337323
100090.389337535
100090.387056964
100090.387056801
100090.387056643
100090.387056479
100090.387056361
100090.387056278
100090.387056228
100090.387056198
100090.387056183
100090.387056178
100090.38705618
100090.387056185
100090.387056194
100090.387056205
100090.387056218
100090.387056232
100090.387056248
100090.387056265
100090.387056284
100090.387056303
100090.387056323
100090.387056345
100090.387056367
100090.38705639
100090.387056413
100090.387056437
100090.387056462
100090.387056486
100090.387056511
100090.387056535
100090.38705656
100090.387056585
100090.387056609
100090.387056633
100090.387056657
100090.38705668
100090.387056703
100090.387056725
100090.387056748
100090.387056772
100090.387056798
100090.387056827
100090.387056864
100090.387056913
100090.38705698
100090.387057076
100090.387057206
100090.387057379
100090.387057542
100090.387057711
100090.384776981
100090.384776858
100090.384776732
100090.384776592
100090.384776486
100090.384776407
100090.384776357
100090.384776325
100090.384776308
100090.3847763
100090.3847763
100090.384776304
100090.384776311
100090.384776322
100090.384776334
100090.384776348
100090.384776364
100090.384776381
100090.384776399
100090.384776418
100090.384776439
100090.38477646
100090.384776483
100090.384776505
100090.384776529
100090.384776553
100090.384776577
100090.384776602
100090.384776627
100090.384776651
100090.384776676
100090.384776701
100090.384776725
100090.384776749
100090.384776773
100090.384776797
100090.384776821
100090.384776844
100090.384776868
100090.384776893
100090.384776921
100090.384776953
100090.384776992
100090.384777044
100090.384777111
100090.384777204
100090.384777321
100090.38477747
100090.384777601
100090.384777729
100090.382496942
100090.382496852
100090.382496753
100090.382496635
100090.382496543
100090.38249647
100090.382496421
100090.382496389
100090.38249637
100090.382496361
100090.382496359
100090.382496362
100090.382496369
100090.382496379
100090.38249639
100090.382496404
100090.38249642
100090.382496437
100090.382496455
100090.382496474
100090.382496495
100090.382496516
100090.382496539
100090.382496562
100090.382496585
100090.382496609
100090.382496634
100090.382496658
100090.382496683
100090.382496708
100090.382496733
100090.382496758
100090.382496782
100090.382496807
100090.382496831
100090.382496855
100090.382496879
100090.382496903
100090.382496928
100090.382496955
100090.382496984
100090.382497018
100090.382497058
100090.38249711
100090.382497176
100090.382497263
100090.382497366
100090.382497493
100090.382497597
100090.382497691
100090.380216891
100090.380216825
100090.380216748
100090.380216651
100090.380216571
100090.380216505
100090.38021646
100090.380216428
100090.380216409
100090.380216399
100090.380216396
100090.380216398
100090.380216404
100090.380216413
100090.380216425
100090.380216438
100090.380216454
100090.38021647
100090.380216489
100090.380216508
100090.380216529
100090.38021655
100090.380216573
100090.380216596
100090.380216619
100090.380216643
100090.380216668
100090.380216692
100090.380216717
100090.380216742
100090.380216767
100090.380216792
100090.380216817
100090.380216841
100090.380216866
100090.38021689
100090.380216915
100090.38021694
100090.380216965
100090.380216993
100090.380217023
100090.380217058
100090.380217099
100090.38021715
100090.380217213
100090.380217293
100090.380217384
100090.38021749
100090.380217573
100090.380217643
100090.377936845
100090.377936797
100090.377936736
100090.377936656
100090.377936588
100090.37793653
100090.377936488
100090.377936457
100090.377936439
100090.377936428
100090.377936425
100090.377936426
100090.377936432
100090.37793644
100090.377936452
100090.377936465
100090.37793648
100090.377936497
100090.377936516
100090.377936535
100090.377936556
100090.377936577
100090.3779366
100090.377936623
100090.377936646
100090.37793667
100090.377936695
100090.37793672
100090.377936745
100090.37793677
100090.377936795
100090.37793682
100090.377936845
100090.377936869
100090.377936894
100090.377936919
100090.377936943
100090.377936969
100090.377936995
100090.377937023
100090.377937054
100090.377937089
100090.377937131
100090.37793718
100090.37793724
100090.377937312
100090.377937392
100090.37793748
100090.377937547
100090.377937598
100090.375656808
100090.375656772
100090.375656724
100090.375656659
100090.375656601
100090.37565655
100090.375656512
100090.375656484
100090.375656466
100090.375656456
100090.375656452
100090.375656453
100090.375656458
100090.375656467
100090.375656478
100090.375656491
100090.375656506
100090.375656523
100090.375656541
100090.375656561
100090.375656582
100090.375656603
100090.375656626
100090.375656649
100090.375656673
100090.375656697
100090.375656721
100090.375656746
100090.375656771
100090.375656796
100090.375656821
100090.375656846
100090.375656871
100090.375656896
100090.375656921
100090.375656946
100090.375656971
100090.375656997
100090.375657024
100090.375657052
100090.375657083
100090.375657118
100090.375657159
100090.375657206
100090.375657262
100090.375657327
100090.375657396
100090.375657471
100090.375657524
100090.375657562
100090.37337678
100090.373376753
100090.373376715
100090.373376662
100090.373376613
100090.373376569
100090.373376534
100090.373376509
100090.373376492
100090.373376483
100090.373376479
100090.37337648
100090.373376485
100090.373376494
100090.373376505
100090.373376518
100090.373376533
100090.37337655
100090.373376568
100090.373376588
100090.373376609
100090.37337663
100090.373376653
100090.373376676
100090.3733767
100090.373376724
100090.373376749
100090.373376774
100090.373376799
100090.373376824
100090.373376849
100090.373376874
100090.373376899
100090.373376924
100090.373376949
100090.373376974
100090.373377
100090.373377025
100090.373377052
100090.373377081
100090.373377112
100090.373377147
100090.373377186
100090.373377231
100090.373377282
100090.373377341
100090.373377401
100090.373377463
100090.373377507
100090.373377536
100090.37109676
100090.37109674
100090.37109671
100090.371096666
100090.371096625
100090.371096587
100090.371096557
100090.371096534
100090.371096519
100090.37109651
100090.371096507
100090.371096508
100090.371096513
100090.371096522
100090.371096533
100090.371096546
100090.371096561
100090.371096578
100090.371096597
100090.371096616
100090.371096637
100090.371096659
100090.371096681
100090.371096705
100090.371096729
100090.371096753
100090.371096778
100090.371096803
100090.371096828
100090.371096853
100090.371096878
100090.371096903
100090.371096928
100090.371096953
100090.371096979
100090.371097004
100090.371097029
100090.371097055
100090.371097082
100090.371097111
100090.371097141
100090.371097175
100090.371097213
100090.371097256
100090.371097303
100090.371097355
100090.371097407
100090.37109746
100090.371097495
100090.371097517
100090.368816746
100090.368816731
100090.368816707
100090.368816672
100090.368816638
100090.368816605
100090.368816579
100090.368816559
100090.368816545
100090.368816538
100090.368816535
100090.368816537
100090.368816542
100090.368816551
100090.368816562
100090.368816575
100090.368816591
100090.368816608
100090.368816626
100090.368816646
100090.368816667
100090.368816689
100090.368816711
100090.368816735
100090.368816759
100090.368816783
100090.368816808
100090.368816833
100090.368816858
100090.368816883
100090.368816909
100090.368816934
100090.368816959
100090.368816984
100090.368817009
100090.368817034
100090.36881706
100090.368817086
100090.368817113
100090.368817141
100090.368817171
100090.368817204
100090.36881724
100090.36881728
100090.368817323
100090.36881737
100090.368817415
100090.368817459
100090.368817488
100090.368817505
100090.366536738
100090.366536727
100090.366536708
100090.366536679
100090.366536651
100090.366536623
100090.366536601
100090.366536584
100090.366536572
100090.366536565
100090.366536564
100090.366536566
100090.366536572
100090.36653658
100090.366536592
100090.366536605
100090.366536621
100090.366536638
100090.366536657
100090.366536676
100090.366536697
100090.366536719
100090.366536742
100090.366536766
100090.36653679
100090.366536814
100090.366536839
100090.366536864
100090.366536889
100090.366536915
100090.36653694
100090.366536965
100090.36653699
100090.366537015
100090.36653704
100090.366537066
100090.366537091
100090.366537117
100090.366537144
100090.366537171
100090.366537201
100090.366537233
100090.366537267
100090.366537304
100090.366537343
100090.366537385
100090.366537424
100090.366537461
100090.366537485
100090.366537498
100090.364256734
100090.364256725
100090.36425671
100090.364256687
100090.364256664
100090.364256641
100090.364256622
100090.364256608
100090.364256598
100090.364256593
100090.364256592
100090.364256595
100090.364256601
100090.36425661
100090.364256622
100090.364256636
100090.364256651
100090.364256669
100090.364256687
100090.364256707
100090.364256729
100090.364256751
100090.364256774
100090.364256797
100090.364256821
100090.364256846
100090.364256871
100090.364256896
100090.364256921
100090.364256946
100090.364256972
100090.364256997
100090.364257022
100090.364257047
100090.364257072
100090.364257097
100090.364257123
100090.364257148
100090.364257174
100090.364257202
100090.36425723
100090.364257261
100090.364257293
100090.364257328
100090.364257363
100090.3642574
100090.364257435
100090.364257466
100090.364257485
100090.364257496
100090.361976732
100090.361976726
100090.361976715
100090.361976696
100090.361976677
100090.361976659
100090.361976643
100090.361976631
100090.361976623
100090.36197662
100090.36197662
100090.361976624
100090.36197663
100090.36197664
100090.361976652
100090.361976666
100090.361976682
100090.361976699
100090.361976718
100090.361976739
100090.36197676
100090.361976782
100090.361976805
100090.361976829
100090.361976853
100090.361976878
100090.361976903
100090.361976928
100090.361976953
100090.361976978
100090.361977004
100090.361977029
100090.361977054
100090.361977079
100090.361977104
100090.361977129
100090.361977154
100090.361977179
100090.361977205
100090.361977232
100090.361977259
100090.361977288
100090.361977319
100090.361977351
100090.361977383
100090.361977416
100090.361977446
100090.361977472
100090.361977488
100090.361977496
100090.359696733
100090.359696729
100090.35969672
100090.359696706
100090.359696691
100090.359696676
100090.359696663
100090.359696654
100090.359696648
100090.359696646
100090.359696647
100090.359696652
100090.359696659
100090.359696669
100090.359696682
100090.359696696
100090.359696712
100090.35969673
100090.359696749
100090.359696769
100090.359696791
100090.359696813
100090.359696836
100090.35969686
100090.359696884
100090.359696909
100090.359696934
100090.359696959
100090.359696985
100090.35969701
100090.359697035
100090.35969706
100090.359697086
100090.35969711
100090.359697135
100090.35969716
100090.359697185
100090.35969721
100090.359697235
100090.359697261
100090.359697288
100090.359697315
100090.359697344
100090.359697373
100090.359697403
100090.359697432
100090.359697457
100090.35969748
100090.359697493
100090.359697499
100090.357416736
100090.357416733
100090.357416726
100090.357416716
100090.357416704
100090.357416692
100090.357416683
100090.357416676
100090.357416672
100090.357416671
100090.357416674
100090.357416679
100090.357416687
100090.357416698
100090.357416711
100090.357416725
100090.357416742
100090.35741676
100090.357416779
100090.3574168
100090.357416822
100090.357416844
100090.357416867
100090.357416891
100090.357416916
100090.35741694
100090.357416965
100090.357416991
100090.357417016
100090.357417041
100090.357417067
100090.357417092
100090.357417117
100090.357417142
100090.357417166
100090.357417191
100090.357417215
100090.35741724
100090.357417264
100090.35741729
100090.357417315
100090.357417341
100090.357417368
100090.357417395
100090.357417421
100090.357417447
100090.35741747
100090.357417488
100090.357417499
100090.357417503
100090.35513674
100090.355136738
100090.355136733
100090.355136725
100090.355136717
100090.355136708
100090.355136701
100090.355136697
100090.355136695
100090.355136696
100090.355136699
100090.355136706
100090.355136715
100090.355136726
100090.355136739
100090.355136754
100090.355136771
100090.355136789
100090.355136809
100090.35513683
100090.355136852
100090.355136874
100090.355136898
100090.355136922
100090.355136946
100090.355136971
100090.355136996
100090.355137021
100090.355137047
100090.355137072
100090.355137097
100090.355137122
100090.355137147
100090.355137172
100090.355137196
100090.355137221
100090.355137245
100090.355137269
100090.355137293
100090.355137317
100090.355137342
100090.355137366
100090.355137391
100090.355137416
100090.35513744
100090.355137462
100090.355137482
100090.355137497
100090.355137506
100090.355137509
100090.352856744
100090.352856743
100090.35285674
100090.352856735
100090.352856729
100090.352856724
100090.352856719
100090.352856717
100090.352856717
100090.352856719
100090.352856724
100090.352856731
100090.352856741
100090.352856753
100090.352856767
100090.352856782
100090.3528568
100090.352856818
100090.352856838
100090.352856859
100090.352856881
100090.352856904
100090.352856927
100090.352856952
100090.352856976
100090.352857001
100090.352857026
100090.352857052
100090.352857077
100090.352857102
100090.352857127
100090.352857152
100090.352857177
100090.352857202
100090.352857226
100090.35285725
100090.352857273
100090.352857297
100090.35285732
100090.352857344
100090.352857367
100090.35285739
100090.352857413
100090.352857436
100090.352857457
100090.352857477
100090.352857494
100090.352857507
100090.352857513
100090.352857515
100090.350576749
100090.350576749
100090.350576748
100090.350576745
100090.350576742
100090.350576738
100090.350576736
100090.350576736
100090.350576738
100090.350576741
100090.350576748
100090.350576756
100090.350576767
100090.350576779
100090.350576794
100090.35057681
100090.350576827
100090.350576846
100090.350576866
100090.350576888
100090.35057691
100090.350576933
100090.350576956
100090.350576981
100090.350577005
100090.35057703
100090.350577056
100090.350577081
100090.350577106
100090.350577132
100090.350577157
100090.350577182
100090.350577206
100090.350577231
100090.350577254
100090.350577278
100090.350577301
100090.350577324
100090.350577347
100090.350577369
100090.350577392
100090.350577413
100090.350577435
100090.350577455
100090.350577475
100090.350577492
100090.350577506
100090.350577516
100090.350577521
100090.350577522
100090.348296754
100090.348296755
100090.348296755
100090.348296754
100090.348296753
100090.348296753
100090.348296753
100090.348296754
100090.348296758
100090.348296763
100090.34829677
100090.34829678
100090.348296791
100090.348296805
100090.34829682
100090.348296836
100090.348296854
100090.348296873
100090.348296894
100090.348296915
100090.348296938
100090.348296961
100090.348296985
100090.348297009
100090.348297034
100090.348297059
100090.348297084
100090.34829711
100090.348297135
100090.34829716
100090.348297185
100090.34829721
100090.348297235
100090.348297259
100090.348297282
100090.348297306
100090.348297328
100090.348297351
100090.348297373
100090.348297394
100090.348297415
100090.348297436
100090.348297455
100090.348297474
100090.348297491
100090.348297506
100090.348297518
100090.348297526
100090.34829753
100090.34829753
100090.346016759
100090.346016761
100090.346016763
100090.346016764
100090.346016765
100090.346016766
100090.346016768
100090.346016772
100090.346016777
100090.346016784
100090.346016792
100090.346016803
100090.346016815
100090.346016829
100090.346016845
100090.346016862
100090.34601688
100090.3460169
100090.346016921
100090.346016943
100090.346016965
100090.346016989
100090.346017013
100090.346017037
100090.346017062
100090.346017087
100090.346017112
100090.346017138
100090.346017163
100090.346017188
100090.346017213
100090.346017238
100090.346017262
100090.346017286
100090.346017309
100090.346017332
100090.346017355
100090.346017376
100090.346017398
100090.346017418
100090.346017438
100090.346017457
100090.346017475
100090.346017492
100090.346017507
100090.34601752
100090.34601753
100090.346017536
100090.346017538
100090.346017537
100090.343736764
100090.343736767
100090.34373677
100090.343736773
100090.343736776
100090.343736779
100090.343736784
100090.343736789
100090.343736796
100090.343736804
100090.343736814
100090.343736825
100090.343736838
100090.343736853
100090.343736869
100090.343736887
100090.343736906
100090.343736926
100090.343736947
100090.343736969
100090.343736992
100090.343737016
100090.34373704
100090.343737064
100090.343737089
100090.343737115
100090.34373714
100090.343737165
100090.343737191
100090.343737216
100090.343737241
100090.343737265
100090.343737289
100090.343737313
100090.343737336
100090.343737358
100090.34373738
100090.343737401
100090.343737422
100090.343737441
100090.34373746
100090.343737478
100090.343737494
100090.343737509
100090.343737523
100090.343737533
100090.343737541
100090.343737546
100090.343737547
100090.343737545
100090.341456769
100090.341456773
100090.341456777
100090.341456782
100090.341456787
100090.341456792
100090.341456798
100090.341456805
100090.341456814
100090.341456823
100090.341456834
100090.341456847
100090.341456861
100090.341456877
100090.341456893
100090.341456912
100090.341456931
100090.341456951
100090.341456973
100090.341456995
100090.341457018
100090.341457042
100090.341457066
100090.341457091
100090.341457116
100090.341457141
100090.341457167
100090.341457192
100090.341457217
100090.341457243
100090.341457267
100090.341457292
100090.341457316
100090.341457339
100090.341457362
100090.341457384
100090.341457405
100090.341457426
100090.341457445
100090.341457464
100090.341457482
100090.341457498
100090.341457513
100090.341457526
100090.341457538
100090.341457547
100090.341457553
100090.341457555
100090.341457555
100090.341457552
100090.339176773
100090.339176778
100090.339176784
100090.339176791
100090.339176798
100090.339176805
100090.339176813
100090.339176822
100090.339176831
100090.339176842
100090.339176855
100090.339176868
100090.339176883
100090.339176899
100090.339176917
100090.339176936
100090.339176955
100090.339176976
100090.339176998
100090.339177021
100090.339177044
100090.339177068
100090.339177092
100090.339177117
100090.339177142
100090.339177168
100090.339177193
100090.339177219
100090.339177244
100090.339177269
100090.339177294
100090.339177318
100090.339177342
100090.339177365
100090.339177387
100090.339177409
100090.33917743
100090.339177449
100090.339177468
100090.339177486
100090.339177503
100090.339177518
100090.339177531
100090.339177543
100090.339177553
100090.33917756
100090.339177564
100090.339177565
100090.339177563
100090.339177559
100090.336896778
100090.336896784
100090.336896791
100090.3368968
100090.336896808
100090.336896818
100090.336896827
100090.336896838
100090.336896849
100090.336896861
100090.336896874
100090.336896889
100090.336896905
100090.336896922
100090.33689694
100090.336896959
100090.33689698
100090.336897001
100090.336897023
100090.336897046
100090.336897069
100090.336897094
100090.336897118
100090.336897143
100090.336897168
100090.336897194
100090.336897219
100090.336897245
100090.33689727
100090.336897295
100090.336897319
100090.336897344
100090.336897367
100090.33689739
100090.336897412
100090.336897433
100090.336897453
100090.336897473
100090.336897491
100090.336897508
100090.336897523
100090.336897537
100090.336897549
100090.336897559
100090.336897567
100090.336897573
100090.336897575
100090.336897574
100090.336897571
100090.336897566
100090.334616782
100090.33461679
100090.334616798
100090.334616809
100090.334616819
100090.33461683
100090.334616841
100090.334616853
100090.334616866
100090.334616879
100090.334616894
100090.33461691
100090.334616926
100090.334616944
100090.334616963
100090.334616983
100090.334617003
100090.334617025
100090.334617047
100090.334617071
100090.334617094
100090.334617119
100090.334617144
100090.334617169
100090.334617194
100090.33461722
100090.334617245
100090.33461727
100090.334617296
100090.334617321
100090.334617345
100090.334617369
100090.334617392
100090.334617415
100090.334617436
100090.334617457
100090.334617477
100090.334617496
100090.334617513
100090.334617529
100090.334617543
100090.334617556
100090.334617567
100090.334617576
100090.334617582
100090.334617585
100090.334617586
100090.334617583
100090.334617579
100090.334617573
100090.332336787
100090.332336795
100090.332336805
100090.332336818
100090.33233683
100090.332336843
100090.332336855
100090.332336869
100090.332336883
100090.332336898
100090.332336913
100090.33233693
100090.332336947
100090.332336966
100090.332336985
100090.332337006
100090.332337027
100090.332337049
100090.332337072
100090.332337095
100090.332337119
100090.332337144
100090.332337169
100090.332337194
100090.332337219
100090.332337245
100090.332337271
100090.332337296
100090.332337321
100090.332337346
100090.33233737
100090.332337394
100090.332337417
100090.332337439
100090.332337461
100090.332337481
100090.3323375
100090.332337518
100090.332337535
100090.33233755
100090.332337563
100090.332337575
100090.332337584
100090.332337592
100090.332337596
100090.332337598
100090.332337597
100090.332337593
100090.332337587
100090.33233758
100090.330056791
100090.330056801
100090.330056813
100090.330056827
100090.330056841
100090.330056855
100090.33005687
100090.330056885
100090.3300569
100090.330056916
100090.330056933
100090.33005695
100090.330056969
100090.330056988
100090.330057008
100090.330057029
100090.33005705
100090.330057073
100090.330057096
100090.33005712
100090.330057144
100090.330057169
100090.330057194
100090.330057219
100090.330057245
100090.33005727
100090.330057296
100090.330057321
100090.330057346
100090.330057371
100090.330057395
100090.330057419
100090.330057442
100090.330057464
100090.330057485
100090.330057505
100090.330057523