/*--------------------------------*- C++ -*----------------------------------*\
  =========                 |
  \\      /  F ield         | OpenFOAM: The Open Source CFD Toolbox
   \\    /   O peration     | Website:  https://openfoam.org
    \\  /    A nd           | Version:  10
     \\/     M anipulation  |
\*---------------------------------------------------------------------------*/
FoamFile
{
    format      ascii;
    class       volScalarField;
    location    "5.6";
    object      p_rgh;
}
// * * * * * * * * * * * * * * * * * * * * * * * * * * * * * * * * * * * * * //

dimensions      [1 -1 -2 0 0 0 0];

internalField   nonuniform List<scalar> 
2500
(
90.5208569989045
90.5208615190495
90.5208680428623
90.5208725117263
90.5208750650054
90.5208764759591
90.520877224626
90.5208776170621
90.5208778191009
90.5208779230452
90.520877979332
90.5208780124958
90.520878035124
90.5208780534595
90.5208780702233
90.5208780867979
90.5208781036345
90.5208781212423
90.5208781397814
90.5208781591646
90.5208781794208
90.5208782005502
90.5208782224363
90.5208782450063
90.5208782681875
90.5208782918926
90.5208783159469
90.5208783402923
90.5208783647831
90.5208783892886
90.5208784136921
90.5208784377755
90.520878461437
90.520878484429
90.5208785064606
90.5208785270515
90.5208785453724
90.5208785599534
90.5208785674185
90.5208785618161
90.5208785301802
90.5208784473216
90.5208782638219
90.5208778884844
90.520877157076
90.5208757674263
90.5208732316096
90.5208687497216
90.520862161793
90.5208577473823
90.5212634336785
90.5212798093562
90.5212967977131
90.5213080925751
90.5213146700262
90.5213183426094
90.5213203179592
90.5213213482493
90.5213218659628
90.5213221182057
90.5213222402235
90.5213223011233
90.5213223349128
90.5213223574683
90.5213223757601
90.521322392844
90.5213224098989
90.5213224275794
90.5213224461186
90.5213224655017
90.5213224857725
90.5213225069165
90.5213225288317
90.5213225514017
90.5213225745829
90.5213225982734
90.5213226223423
90.5213226466876
90.5213226711785
90.5213226956839
90.5213227200729
90.5213227441709
90.5213227677741
90.5213227906497
90.5213228124339
90.5213228323555
90.5213228488574
90.5213228585781
90.5213228539214
90.5213228186039
90.5213227180357
90.5213224828622
90.5213219796278
90.5213209653448
90.5213190140057
90.5213153777586
90.5213088271703
90.5212974745809
90.5212802804454
90.5212642546394
90.5216716293071
90.5216975248186
90.5217205354857
90.5217353549961
90.5217438971595
90.5217486316978
90.5217511670344
90.521752483357
90.5217531412054
90.5217534588737
90.5217536097771
90.521753682784
90.5217537213757
90.5217537457065
90.5217537646386
90.5217537819262
90.5217537990684
90.5217538167926
90.5217538353172
90.521753854744
90.5217538750294
90.5217538962024
90.5217539181176
90.5217539407313
90.521753963927
90.5217539876321
90.521754011701
90.5217540360463
90.5217540605227
90.5217540850281
90.5217541094171
90.5217541335296
90.5217541571183
90.5217541799357
90.5217542016326
90.5217542213359
90.5217542371684
90.5217542449682
90.5217542353348
90.5217541875754
90.5217540575395
90.5217537563294
90.5217531123781
90.5217518121935
90.5217493022792
90.5217446042807
90.5217360755923
90.5217211357958
90.5216977527598
90.5216719973105
90.5220243700023
90.5220531674131
90.5220756256313
90.5220894986996
90.5220972257084
90.5221013772098
90.5221035427385
90.5221046446532
90.5221051877743
90.5221054482099
90.5221055722359
90.5221056332666
90.5221056667797
90.5221056890441
90.5221057071467
90.5221057240851
90.5221057411254
90.522105758806
90.5221057773306
90.5221057967574
90.5221058170719
90.5221058382594
90.5221058602037
90.522105882832
90.5221059060423
90.5221059297619
90.5221059538308
90.5221059781761
90.5221060026815
90.522106027187
90.522106051576
90.5221060757176
90.5221060993354
90.5221061222255
90.5221061441116
90.5221061642369
90.5221061811026
90.5221061913908
90.5221061876073
90.5221061531047
90.5221060518961
90.522105810378
90.5221052831766
90.5221041972545
90.5221020519675
90.5220979230944
90.5220901831053
90.522076142006
90.5220532051753
90.5220241228817
90.5222926736315
90.5223183643684
90.5223364724807
90.5223471923528
90.5223529513605
90.5223559471779
90.5223574689153
90.5223582291801
90.5223586005886
90.5223587790533
90.5223588658409
90.5223589106754
90.5223589374218
90.5223589568923
90.5223589738598
90.5223589903617
90.5223590072274
90.5223590248497
90.5223590433743
90.5223590628157
90.5223590831592
90.5223591043468
90.5223591263493
90.5223591489921
90.5223591722461
90.5223591959511
90.5223592200491
90.522359244409
90.5223592689144
90.5223592934344
90.522359317838
90.5223593420087
90.5223593656847
90.5223593887204
90.5223594108538
90.5223594315321
90.522359449722
90.5223594631825
90.5223594669078
90.5223594498239
90.5223593877599
90.522359230803
90.5223588779772
90.5223581347964
90.5223566302739
90.5223536476406
90.522347862774
90.5223369679734
90.5223183604103
90.5222920498782
90.5224753650109
90.5224948437099
90.5225074638001
90.5225146197918
90.5225183252187
90.5225201899884
90.5225211122597
90.5225215653918
90.5225217860716
90.5225218935811
90.5225219483109
90.5225219791319
90.5225219998974
90.5225220168504
90.5225220327557
90.5225220487773
90.5225220654538
90.522522083018
90.522522101528
90.5225221209839
90.5225221413566
90.5225221625733
90.5225221845903
90.5225222072768
90.5225222305453
90.522522254294
90.5225222784356
90.5225223028101
90.5225223273301
90.5225223518646
90.5225223763118
90.5225224005117
90.5225224242749
90.5225224474707
90.5225224698661
90.5225224911119
90.5225225105241
90.5225225267641
90.5225225369359
90.5225225346367
90.5225225058675
90.5225224215828
90.5225222214503
90.5225217867264
90.5225208810152
90.5225190267665
90.5225152981293
90.5225079959637
90.5224949381081
90.5224747225147
90.5225882512023
90.5226012186904
90.5226090203505
90.5226132458774
90.5226153489639
90.5226163682819
90.5226168573136
90.5226170931128
90.5226172082621
90.5226172660914
90.5226172980911
90.5226173187548
90.5226173349947
90.522617349925
90.5226173648844
90.522617380484
90.5226173969568
90.5226174144336
90.5226174329291
90.5226174523996
90.5226174727868
90.5226174940472
90.5226175160933
90.5226175388234
90.5226175621356
90.5226175859134
90.5226176100696
90.5226176344877
90.5226176590513
90.522617683615
90.5226177080913
90.5226177323493
90.522617756229
90.5226177795994
90.5226178022858
90.5226178240555
90.5226178445155
90.5226178629528
90.522617877883
90.5226178861631
90.5226178807061
90.5226178469602
90.5226177533914
90.522617536888
90.5226170647657
90.5226160569146
90.5226139408041
90.5226096132101
90.5226014808432
90.5225878468773
90.5226522502635
90.5226599889575
90.5226643351343
90.5226665647933
90.5226676213351
90.5226681065833
90.5226683286746
90.5226684320951
90.5226684829249
90.5226685100497
90.5226685275848
90.5226685414527
90.5226685544476
90.5226685677771
90.5226685819507
90.5226685971429
90.522668613412
90.5226686307869
90.5226686492388
90.5226686687238
90.5226686891401
90.5226687104441
90.5226687325339
90.5226687552931
90.5226687786489
90.5226688024704
90.5226688266703
90.5226688511175
90.5226688757102
90.5226689003321
90.5226689248666
90.5226689491974
90.5226689731935
90.5226689967531
90.5226690197596
90.5226690420095
90.5226690633717
90.5226690835116
90.5226691018324
90.5226691170974
90.5226691263524
90.5226691236894
90.5226690948621
90.5226690111158
90.5226688062394
90.5226683340443
90.5226672747813
90.5226649846882
90.522660418821
90.5226521763543
90.5226858390815
90.5226900350826
90.5226922336587
90.5226932788064
90.5226937366242
90.5226939245476
90.5226940006978
90.5226940318098
90.5226940469583
90.5226940564608
90.522694065221
90.5226940746506
90.5226940853463
90.5226940974389
90.522694110914
90.5226941257133
90.5226941417641
90.5226941590518
90.5226941774599
90.5226941969158
90.5226942173613
90.5226942386944
90.5226942608278
90.5226942836453
90.5226943070302
90.5226943309099
90.5226943551534
90.5226943796442
90.5226944042806
90.5226944289607
90.522694453568
90.5226944779861
90.5226945021132
90.522694525891
90.5226945491886
90.5226945719332
90.5226945940813
90.5226946155744
90.5226946362964
90.5226946561015
90.5226946742623
90.5226946893526
90.522694696323
90.5226946849871
90.52269462611
90.5226944522583
90.522693998937
90.5226929240307
90.5226905953605
90.5226860668918
90.5227022727777
90.5227043552295
90.522705362062
90.5227057796437
90.5227059312601
90.5227059707686
90.5227059748577
90.5227059697936
90.5227059664321
90.5227059662138
90.5227059697063
90.5227059761964
90.5227059851895
90.5227059962781
90.522706009142
90.5227060235775
90.5227060394245
90.5227060565812
90.5227060749457
90.5227060944162
90.5227061148762
90.522706136253
90.5227061584301
90.5227061812911
90.5227062047343
90.5227062286576
90.5227062529448
90.5227062774939
90.5227063021885
90.5227063269122
90.5227063515922
90.5227063761267
90.5227064004139
90.5227064243954
90.5227064479841
90.5227064711944
90.5227064940555
90.5227065166546
90.5227065391664
90.5227065619983
90.5227065854997
90.5227066103835
90.5227066359075
90.5227066607476
90.5227066738298
90.522706648786
90.5227065056679
90.5227060774923
90.5227050016547
90.5227027228102
90.5227098029864
90.5227107490064
90.5227111558052
90.5227112741413
90.5227112856082
90.522711259051
90.5227112311986
90.5227112095308
90.5227111970598
90.5227111915592
90.5227111918357
90.5227111963177
90.5227112040302
90.5227112142893
90.5227112266148
90.5227112407156
90.5227112563734
90.5227112734428
90.5227112917637
90.5227113112196
90.5227113317087
90.5227113531146
90.5227113753353
90.5227113982546
90.522711421756
90.522711445723
90.5227114700683
90.5227114946756
90.5227115194284
90.5227115442249
90.5227115689777
90.5227115936141
90.5227116180467
90.522711642232
90.5227116661408
90.5227116898022
90.5227117132745
90.5227117367904
90.5227117606846
90.5227117855975
90.5227118124021
90.5227118426119
90.5227118773037
90.5227119187039
90.5227119636256
90.5227120047057
90.5227120036143
90.5227118851908
90.5227114460431
90.5227103946818
90.5227130378771
90.5227134259185
90.5227135572059
90.5227135486493
90.5227135044552
90.5227134530287
90.5227134132292
90.5227133848966
90.5227133682347
90.5227133599255
90.522713358223
90.5227133612934
90.522713368031
90.5227133776061
90.522713389495
90.5227134033048
90.5227134188026
90.5227134357701
90.5227134540473
90.5227134735178
90.522713494036
90.5227135154855
90.52271353775
90.5227135607274
90.522713584287
90.5227136083122
90.5227136327157
90.5227136573667
90.5227136821777
90.5227137070469
90.5227137319016
90.5227137566399
90.522713781218
90.5227138056071
90.5227138297923
90.5227138538467
90.5227138778719
90.522713902159
90.5227139271301
90.5227139535273
90.5227139823837
90.5227140154602
90.5227140543866
90.522714102437
90.5227141592768
90.5227142251388
90.5227142804652
90.5227142941294
90.522714150371
90.5227137107431
90.5227143322118
90.5227144688397
90.5227144858654
90.5227144323435
90.5227143716038
90.5227143143129
90.5227142718359
90.522714241728
90.5227142234507
90.5227142137155
90.5227142108197
90.5227142129588
90.5227142189542
90.52271422802
90.5227142395452
90.5227142531367
90.5227142684889
90.5227142853837
90.5227143036464
90.5227143231314
90.5227143436787
90.5227143651719
90.5227143874945
90.5227144105302
90.5227144341334
90.5227144582313
90.5227144826931
90.5227145074023
90.522714532286
90.522714557228
90.5227145821555
90.5227146070101
90.5227146317338
90.5227146562975
90.5227146807447
90.5227147051337
90.5227147296391
90.5227147545374
90.522714780338
90.5227148077538
90.5227148378763
90.522714872408
90.5227149129933
90.5227149628627
90.5227150223072
90.52271509399
90.5227151661675
90.5227152271109
90.5227152074949
90.522715048035
90.5227148020349
90.5227148353297
90.5227148115082
90.5227147483965
90.5227146874386
90.5227146322868
90.5227145912941
90.5227145617537
90.5227145432727
90.5227145330427
90.5227145294921
90.52271453102
90.5227145365352
90.5227145452081
90.5227145564713
90.5227145698882
90.5227145851386
90.5227146019897
90.5227146202524
90.5227146397519
90.5227146603575
90.5227146819088
90.5227147042897
90.522714727369
90.5227147510595
90.5227147752012
90.5227147997211
90.5227148245031
90.522714849445
90.5227148744598
90.52271489946
90.5227149244165
90.5227149492566
90.5227149739949
90.5227149986604
90.5227150233259
90.5227150482096
90.5227150736027
90.5227150999854
90.5227151280997
90.5227151589352
90.5227151940489
90.5227152348525
90.522715284169
90.5227153421438
90.5227154116437
90.5227154841123
90.5227155556204
90.5227155814209
90.5227155394241
90.5227149423008
90.5227149380516
90.522714903942
90.5227148447157
90.5227147895057
90.5227147395199
90.5227147016994
90.5227146739053
90.5227146560646
90.5227146459074
90.5227146421385
90.5227146433899
90.5227146485995
90.5227146570396
90.5227146681282
90.5227146814286
90.5227146966354
90.5227147134719
90.5227147317637
90.5227147512924
90.5227147719415
90.5227147935657
90.5227148160047
90.5227148391714
90.5227148629201
90.5227148871345
90.5227149117127
90.5227149365528
90.522714961553
90.5227149866259
90.5227150117134
90.5227150367427
90.5227150616993
90.522715086583
90.5227151114086
90.5227151363215
90.5227151614818
90.5227151872241
90.5227152139996
90.5227152424777
90.5227152736043
90.5227153086889
90.522715348925
90.5227153964952
90.5227154512831
90.5227155156172
90.5227155823231
90.5227156502515
90.5227156883193
90.5227156903129
90.5227149598068
90.5227149448183
90.5227149118291
90.5227148605918
90.5227148127306
90.522714768711
90.5227147347177
90.5227147092519
90.5227146925754
90.5227146829129
90.5227146792895
90.5227146804827
90.5227146855905
90.5227146939287
90.5227147049445
90.5227147182013
90.5227147334081
90.5227147502737
90.5227147685946
90.522714788196
90.522714808918
90.5227148306003
90.5227148531267
90.5227148763515
90.5227149001585
90.5227149244456
90.5227149490966
90.5227149739949
90.5227149990533
90.5227150241844
90.5227150493301
90.5227150744468
90.5227150994906
90.5227151244617
90.5227151494328
90.5227151745057
90.5227151998697
90.5227152258158
90.522715252795
90.5227152814186
90.522715312487
90.5227153471205
90.522715386207
90.522715431478
90.5227154824533
90.5227155407483
90.522715600091
90.5227156600595
90.5227156977635
90.5227157132467
90.5227149359416
90.5227149201091
90.5227148916747
90.5227148488775
90.5227148082486
90.5227147701808
90.5227147401747
90.5227147173136
90.5227147021214
90.5227146933175
90.5227146900725
90.5227146914403
90.5227146966354
90.5227147050027
90.5227147160331
90.522714729319
90.5227147445548
90.5227147614787
90.5227147798723
90.5227147995611
90.5227148203558
90.5227148421254
90.5227148647245
90.5227148880367
90.522714911931
90.5227149362763
90.5227149609855
90.522714985942
90.5227150110586
90.522715036248
90.5227150614519
90.5227150866122
90.5227151117288
90.5227151367726
90.522715161831
90.5227151870058
90.5227152124717
90.522715238505
90.5227152655134
90.5227152940497
90.5227153247979
90.5227153586311
90.5227153962915
90.5227154389577
90.5227154859313
90.5227155382454
90.522715590283
90.5227156417241
90.5227156750771
90.522715692452
90.5227149008715
90.5227148872218
90.5227148638514
90.5227148287231
90.5227147946716
90.5227147621481
90.522714736042
90.5227147159312
90.5227147024561
90.5227146947145
90.5227146921097
90.5227146938414
90.5227146992402
90.522714707753
90.5227147188853
90.5227147322876
90.5227147476107
90.5227147646365
90.5227147831174
90.5227148028935
90.52271482379
90.5227148456615
90.5227148683625
90.5227148917475
90.5227149157145
90.5227149401326
90.5227149648999
90.5227149899147
90.5227150150749
90.522715040308
90.5227150655555
90.522715090774
90.5227151159052
90.5227151410072
90.5227151661093
90.5227151913132
90.5227152167936
90.5227152427979
90.5227152697043
90.5227152979642
90.5227153281594
90.5227153609885
90.5227153969754
90.5227154369204
90.5227154799941
90.5227155266766
90.5227155720495
90.5227156156907
90.522715643936
90.5227156594628
90.5227148647828
90.5227148538543
90.5227148350823
90.5227148065314
90.5227147782862
90.5227147508558
90.5227147284895
90.5227147111291
90.5227146994876
90.5227146929974
90.522714691193
90.5227146934485
90.5227146992111
90.5227147079713
90.5227147192927
90.5227147328405
90.5227147483238
90.5227147654805
90.5227147840924
90.5227148039849
90.5227148249978
90.5227148469712
90.5227148697595
90.5227148932318
90.5227149172861
90.5227149417769
90.5227149666025
90.5227149916755
90.5227150168794
90.5227150421561
90.5227150674327
90.5227150926657
90.522715117826
90.5227151429281
90.5227151680156
90.5227151931904
90.5227152186126
90.5227152444859
90.522715271145
90.5227152989683
90.5227153284504
90.5227153601008
90.5227153942833
90.5227154314925
90.5227154708118
90.5227155123721
90.522715551866
90.522715588726
90.5227156122273
90.522715625033
90.5227148305421
90.5227148221165
90.5227148072736
90.5227147842816
90.5227147611004
90.5227147382539
90.5227147194382
90.522714704799
90.5227146950929
90.522714689956
90.5227146890975
90.5227146920224
90.5227146982506
90.5227147073456
90.5227147189435
90.5227147327096
90.5227147483674
90.5227147656988
90.5227147844562
90.5227148044942
90.5227148256381
90.5227148477279
90.5227148706181
90.5227148941922
90.5227149183193
90.5227149428829
90.5227149677812
90.5227149928978
90.5227150181454
90.5227150434512
90.5227150687424
90.5227150939754
90.5227151191357
90.5227151442086
90.5227151692525
90.52271519434
90.5227152196167
90.5227152452571
90.522715271567
90.5227152988373
90.5227153274609
90.5227153578162
90.522715390136
90.5227154246386
90.5227154604218
90.52271549734
90.5227155316825
90.5227155627799
90.5227155821631
90.5227155923785
90.5227147985424
90.5227147922415
90.5227147806581
90.52271476241
90.5227147436235
90.5227147249243
90.522714709412
90.5227146973921
90.5227146896505
90.5227146859543
90.5227146861434
90.5227146898251
90.5227146966208
90.5227147061523
90.5227147180849
90.5227147321275
90.5227147480182
90.5227147655387
90.5227147844853
90.5227148046833
90.5227148259582
90.522714848179
90.5227148711856
90.5227148948616
90.522714919076
90.5227149437123
90.5227149686689
90.5227149938291
90.5227150191058
90.5227150444407
90.5227150697319
90.5227150949504
90.522715120067
90.5227151450963
90.5227151700383
90.5227151949948
90.5227152200532
90.5227152454027
90.5227152712469
90.5227152978623
90.52271532554
90.5227153545275
90.5227153849264
90.5227154168242
90.5227154493332
90.522715482075
90.5227155119064
90.522715538129
90.5227155540488
90.5227155620232
90.5227147684345
90.5227147638943
90.5227147550759
90.522714740815
90.5227147259138
90.5227147109399
90.522714698498
90.5227146890247
90.5227146832331
90.5227146810357
90.5227146823454
90.522714686871
90.5227146943071
90.5227147043479
90.5227147166734
90.5227147310507
90.5227147472178
90.5227147649712
90.5227147841215
90.5227148044942
90.5227148259291
90.5227148482809
90.5227148714184
90.5227148951963
90.522714919498
90.5227149442071
90.5227149692219
90.5227149944258
90.5227150197315
90.5227150450664
90.5227150703577
90.522715095547
90.5227151206054
90.5227151455329
90.5227151703439
90.5227151951112
90.5227152199077
90.5227152448788
90.5227152702137
90.5227152960724
90.522715322717
90.5227153502929
90.5227153788001
90.5227154082095
90.5227154376335
90.5227154666354
90.5227154925378
90.5227155145985
90.5227155275788
90.5227155336761
90.5227147397381
90.5227147366677
90.5227147301921
90.5227147193655
90.5227147078549
90.5227146962425
90.5227146866673
90.5227146796242
90.5227146757679
90.522714675084
90.5227146775724
90.5227146830148
90.5227146911639
90.5227147017576
90.5227147145488
90.5227147292899
90.5227147457626
90.5227147637779
90.5227147831611
90.5227148037229
90.5227148253325
90.5227148478443
90.5227148710983
90.5227148949925
90.5227149193961
90.522714944178
90.5227149692364
90.522714994484
90.5227150198189
90.5227150451392
90.5227150704013
90.522715095547
90.5227151205327
90.5227151453437
90.5227151699946
90.5227151945146
90.5227152189909
90.52271524354
90.5227152682637
90.5227152933221
90.5227153188898
90.5227153450105
90.5227153716696
90.522715398678
90.5227154252789
90.5227154509048
90.5227154733584
90.522715491883
90.5227155023749
90.522715506886
90.5227147120022
90.5227147101978
90.5227147057449
90.5227146979014
90.5227146894031
90.522714680832
90.5227146739344
90.522714669205
90.522714667226
90.5227146680845
90.5227146717953
90.5227146781981
90.5227146871039
90.5227146983088
90.5227147115947
90.5227147267433
90.5227147435653
90.5227147618716
90.5227147815021
90.5227148022823
90.522714824081
90.5227148467384
90.5227148701379
90.522714894134
90.5227149186248
90.5227149434941
90.5227149686107
90.5227149938873
90.5227150192368
90.5227150445571
90.5227150697756
90.5227150948485
90.5227151197323
90.5227151443978
90.522715168845
90.5227151931031
90.5227152172301
90.5227152412845
90.5227152653533
90.5227152895677
90.5227153140004
90.522715338695
90.5227153635205
90.5227153882734
90.5227154122404
90.5227154348249
90.5227154542372
90.5227154696913
90.5227154780441
90.5227154812019
90.5227146848483
90.5227146841498
90.5227146814723
90.5227146762627
90.522714670471
90.5227146646939
90.5227146602847
90.5227146577672
90.5227146576217
90.5227146600082
90.5227146649413
90.5227146723337
90.5227146820544
90.5227146939142
90.5227147077385
90.5227147233236
90.522714740524
90.5227147591359
90.5227147790283
90.5227148000558
90.5227148220438
90.5227148448757
90.5227148684062
90.5227148925333
90.522714917126
90.5227149420534
90.5227149672282
90.522714992534
90.5227150178835
90.5227150431892
90.5227150683641
90.5227150933497
90.522715118117
90.5227151426225
90.5227151668369
90.5227151907893
90.5227152144944
90.5227152380248
90.5227152614098
90.5227152847365
90.5227153080341
90.5227153312881
90.5227153543528
90.522715376952
90.5227153984742
90.522715418294
90.522715434985
90.5227154477616
90.5227154542517
90.5227154562454
90.5227146580146
90.5227146583202
90.5227146572579
90.5227146544057
90.5227146510733
90.5227146478428
90.5227146457619
90.5227146453399
90.5227146469988
90.5227146508842
90.5227146570542
90.5227146654797
90.5227146760299
90.5227146885736
90.5227147029655
90.5227147190453
90.5227147366386
90.5227147555852
90.5227147757687
90.522714797029
90.5227148192207
90.5227148422273
90.5227148659178
90.5227148901613
90.5227149148413
90.5227149398561
90.5227149650746
90.5227149904094
90.5227150157589
90.5227150410356
90.5227150661522
90.5227150910505
90.5227151156723
90.5227151399886
90.522715163941
90.5227151875588
90.5227152108419
90.5227152338048
90.5227152564767
90.5227152788866
90.5227153010346
90.522715322877
90.5227153442247
90.5227153647866
90.5227153840242
90.5227154013264
90.5227154155727
90.5227154259483
90.5227154308086
90.5227154317545
90.5227146313264
90.5227146325924
90.5227146329853
90.5227146322723
90.52271463121
90.5227146303514
90.5227146304678
90.5227146320394
90.5227146354155
90.5227146407851
90.5227146482212
90.5227146576653
90.522714669074
90.5227146823308
90.5227146973193
90.5227147138794
90.5227147318801
90.5227147511905
90.5227147716796
90.5227147931873
90.5227148155973
90.522714838793
90.5227148626291
90.5227148870035
90.5227149117854
90.5227149368584
90.5227149621351
90.5227149874845
90.5227150128339
90.522715038067
90.5227150631254
90.5227150879073
90.522715112369
90.5227151364816
90.5227151601575
90.5227151834115
90.5227152062289
90.5227152286097
90.5227152505395
90.5227152720327
90.5227152930311
90.5227153134765
90.5227153331653
90.5227153517917
90.5227153688902
90.5227153838641
90.522715395884
90.5227154040913
90.5227154074819
90.5227154074673
90.5227146045945
90.5227146067773
90.5227146085817
90.5227146098769
90.5227146108955
90.5227146122488
90.5227146144316
90.5227146179095
90.5227146229881
90.5227146297984
90.5227146384568
90.5227146489487
90.5227146612451
90.5227146752295
90.5227146908146
90.5227147078986
90.5227147263358
90.5227147460246
90.5227147668047
90.5227147885889
90.5227148112172
90.5227148346021
90.5227148585982
90.5227148830891
90.5227149079728
90.5227149331186
90.5227149584389
90.5227149838174
90.5227150091378
90.5227150343271
90.5227150593128
90.5227150839783
90.52271510828
90.5227151321451
90.52271515553
90.5227151784056
90.5227152007428
90.5227152225125
90.5227152436855
90.5227152642474
90.5227152841107
90.5227153031883
90.5227153212763
90.5227153380547
90.522715353145
90.5227153659362
90.5227153759042
90.5227153821324
90.5227153841406
90.5227153832093
90.5227145777317
90.5227145808458
90.5227145839744
90.5227145871759
90.5227145901736
90.5227145936224
90.5227145977551
90.5227146030666
90.5227146097604
90.5227146179968
90.5227146278776
90.5227146394172
90.5227146525867
90.5227146673278
90.5227146835532
90.522714701161
90.5227147200494
90.5227147401019
90.5227147612168
90.5227147832629
90.5227148061385
90.5227148296981
90.5227148538543
90.5227148784761
90.5227149034617
90.5227149286802
90.5227149540442
90.5227149794227
90.5227150047431
90.5227150298742
90.522715054758
90.5227150793071
90.5227151034196
90.5227151270519
90.5227151501167
90.5227151725994
90.5227151944418
90.5227152155858
90.5227152360021
90.5227152556181
90.522715274361
90.5227152920997
90.5227153086307
90.5227153236483
90.5227153368323
90.5227153476008
90.5227153556189
90.5227153599844
90.5227153606684
90.5227153588639
90.5227145506942
90.5227145547542
90.5227145592071
90.5227145642566
90.522714569146
90.5227145745739
90.5227145805839
90.5227145876561
90.522714595907
90.5227146055404
90.5227146166144
90.5227146291872
90.5227146432298
90.5227146587131
90.5227146755788
90.522714693725
90.5227147130645
90.5227147335245
90.5227147549595
90.5227147772821
90.5227148003905
90.5227148241538
90.5227148484701
90.5227148732229
90.5227148982958
90.522714923587
90.5227149489947
90.5227149743878
90.5227149996645
90.522715024752
90.5227150495484
90.5227150739374
90.5227150978608
90.5227151212312
90.5227151439904
90.5227151660511
90.5227151873842
90.5227152079024
90.5227152275329
90.5227152462321
90.522715263869
90.5227152802981
90.5227152953448
90.5227153086598
90.5227153200394
90.5227153288579
90.522715335057
90.522715337589
90.5227153370215
90.5227153343003
90.5227145234094
90.5227145284734
90.5227145342651
90.5227145411482
90.522714547842
90.5227145551908
90.5227145629906
90.5227145717363
90.5227145815152
90.5227145925019
90.5227146047691
90.5227146183461
90.5227146332763
90.5227146495163
90.5227146670077
90.5227146857069
90.522714705512
90.5227147263649
90.5227147481346
90.5227147707483
90.5227147940896
90.5227148180566
90.5227148425329
90.5227148674167
90.5227148925769
90.5227149179409
90.5227149433777
90.5227149687707
90.5227149940329
90.5227150190622
90.5227150437422
90.5227150679857
90.5227150917053
90.5227151148138
90.5227151372383
90.522715158877
90.5227151796862
90.5227151995641
90.522715218438
90.5227152362058
90.5227152527514
90.5227152678999
90.522715281506
90.5227152932057
90.5227153028536
90.522715309824
90.5227153142478
90.5227153149899
90.5227153131564
90.5227153094747
90.5227144958335
90.522714501989
90.5227145091485
90.5227145178796
90.5227145263489
90.5227145355457
90.5227145450626
90.5227145554381
90.5227145666722
90.5227145789686
90.5227145924
90.5227146069956
90.522714622799
90.522714639781
90.5227146579273
90.5227146771649
90.5227146974503
90.5227147186961
90.5227147408004
90.5227147637052
90.5227147872793
90.5227148114354
90.5227148360718
90.5227148610866
90.5227148863632
90.5227149117709
90.5227149372367
90.5227149626444
90.5227149878629
90.5227150128194
90.5227150373976
90.522715061481
90.5227150849969
90.5227151078288
90.5227151299041
90.5227151511353
90.5227151714062
90.5227151906583
90.5227152087609
90.522715225612
90.5227152410953
90.5227152550215
90.522715267216
90.5227152773587
90.5227152853331
90.522715290499
90.5227152931911
90.522715292158
90.5227152890002
90.5227152842999
90.5227144679811
90.5227144753444
90.52271448393
90.5227144945384
90.5227145047684
90.5227145157696
90.5227145269455
90.5227145388781
90.5227145515382
90.5227145651152
90.5227145796671
90.5227145952667
90.5227146119287
90.5227146296529
90.5227146484394
90.52271466823
90.5227146889811
90.5227147106198
90.5227147330734
90.5227147562546
90.5227147800615
90.5227148044214
90.5227148292179
90.522714854349
90.522714879713
90.522714905208
90.5227149306884
90.522714956096
90.5227149812854
90.5227150061546
90.5227150306164
90.5227150545397
90.5227150778373
90.5227151003928
90.5227151221188
90.5227151429135
90.5227151626605
90.5227151812724
90.5227151986182
90.5227152145817
90.5227152290172
90.5227152417356
90.5227152525767
90.522715261206
90.5227152675652
90.5227152709849
90.522715271989
90.5227152691223
90.5227152645966
90.5227152587468
90.5227144397941
90.5227144485252
90.5227144586534
90.5227144711971
90.5227144831733
90.5227144959208
90.5227145086974
90.5227145221579
90.522714536186
90.5227145509998
90.5227145666577
90.5227145832032
90.5227146007237
90.5227146191755
90.5227146385878
90.5227146589314
90.5227146801481
90.5227147021797
90.522714724968
90.5227147484402
90.5227147724945
90.5227147970436
90.5227148220001
90.5227148472623
90.5227148727135
90.5227148982522
90.5227149237762
90.5227149491693
90.522714974315
90.5227149991115
90.5227150234423
90.5227150472056
90.5227150702704
90.5227150925493
90.5227151139261
90.5227151342842
90.5227151535073
90.5227151714935
90.5227151880827
90.522715203173
90.5227152165899
90.5227152281295
90.5227152376756
90.5227152448497
90.5227152496518
90.5227152513544
90.5227152506559
90.5227152458974
90.522715239902
90.5227152327716
90.5227144112869
90.5227144215751
90.5227144333621
90.5227144479577
90.5227144616656
90.5227144761302
90.5227144904784
90.5227145053796
90.5227145207318
90.5227145367389
90.5227145534591
90.522714570965
90.5227145892859
90.5227146084799
90.5227146285179
90.5227146493853
90.5227146710677
90.5227146934922
90.5227147166152
90.5227147403639
90.522714764651
90.5227147894038
90.5227148145059
90.5227148398844
90.522714865423
90.5227148910199
90.5227149165585
90.522714941937
90.5227149670391
90.5227149917482
90.5227150159626
90.5227150395513
90.5227150623978
90.5227150843857
90.5227151054132
90.5227151253348
90.5227151440486
90.5227151613944