/*--------------------------------*- C++ -*----------------------------------*\
  =========                 |
  \\      /  F ield         | OpenFOAM: The Open Source CFD Toolbox
   \\    /   O peration     | Website:  https://openfoam.org
    \\  /    A nd           | Version:  10
     \\/     M anipulation  |
\*---------------------------------------------------------------------------*/
FoamFile
{
    format      ascii;
    class       surfaceScalarField;
    location    "5.6";
    object      phi;
}
// * * * * * * * * * * * * * * * * * * * * * * * * * * * * * * * * * * * * * //

dimensions      [1 0 -1 0 0 0 0];

internalField   nonuniform List<scalar> 
4900
(
-6.1069597542429e-12
6.20266248533332e-12
-7.98043428423092e-12
2.02319250411715e-12
-6.83875269140734e-12
-9.77020050345616e-13
-4.87489123312735e-12
-1.80010379058097e-12
-3.21993676252231e-12
-1.49342505234359e-12
-2.07622781315934e-12
-9.83692892345609e-13
-1.34188532156789e-12
-5.75757095524587e-13
-8.8071465721174e-13
-3.04212614194752e-13
-5.89207811828763e-13
-1.36248976122874e-13
-4.01186349210488e-13
-3.4342814668095e-14
-2.75821538530284e-13
2.69750769976072e-14
-1.89017933808308e-13
6.44651561866244e-14
-1.26540881326184e-13
8.79575329931296e-14
-7.99559351251e-14
1.03197178505766e-13
-4.4204414008567e-14
1.13502707271767e-13
-1.615494204296e-14
1.20756845248401e-13
6.20223689330438e-15
1.26048201343384e-13
2.42291701277875e-14
1.30006917121764e-13
3.89027857016967e-14
1.33007272427813e-13
5.09356584958468e-14
1.35312121262449e-13
6.08942007307928e-14
1.37067158019523e-13
6.92394788685941e-14
1.38380272723291e-13
7.63578537002613e-14
1.39327321449047e-13
8.25781640925811e-14
1.39968147527811e-13
8.82224154399146e-14
1.40309928608003e-13
9.35761878123042e-14
1.40390598316531e-13
9.89345756198365e-14
1.40198963650664e-13
1.04597964798055e-13
1.39730987625732e-13
1.10889989573255e-13
1.3896151512882e-13
1.18175328616844e-13
1.37850201780473e-13
1.26891127656698e-13
1.36323115237985e-13
1.37571297891228e-13
1.3428572087016e-13
1.50902240916495e-13
1.31587433808561e-13
1.67819703909516e-13
1.27985312986219e-13
1.89686416057194e-13
1.23061487722567e-13
2.18522015007784e-13
1.16175800306152e-13
2.57466582016492e-13
1.06227979635208e-13
3.11600393114805e-13
9.13036598099011e-14
3.893466567816e-13
6.80809991970694e-14
5.04956535180846e-13
3.07439638937878e-14
6.82460797921043e-13
-3.04945937677563e-14
9.62566975627702e-13
-1.32329790932909e-13
1.41149352530109e-12
-3.00259505920067e-13
2.13387320480095e-12
-5.72535142968192e-13
3.26990441774396e-12
-9.84241111408554e-13
4.9321689468779e-12
-1.50685563453984e-12
6.93073667811314e-12
-1.83694956553613e-12
8.10883248835457e-12
-1.00747504990401e-12
6.1912587788952e-12
2.09171220863749e-12
6.31340171566275e-12
-8.47588394074833e-12
1.48155351255249e-11
-1.31398904721313e-11
6.8866954896802e-12
-1.19610103361623e-11
-1.94182493456863e-12
-8.98115279364268e-12
-4.56800613898988e-12
-6.21669089966022e-12
-4.04980678583834e-12
-4.21321240936013e-12
-2.78207652827006e-12
-2.86998789892738e-12
-1.71642288413193e-12
-1.99068615963476e-12
-9.83367210669684e-13
-1.4091093876275e-12
-5.1992831694989e-13
-1.01425256517102e-12
-2.33267575889309e-13
-7.36430438690716e-13
-5.65287508106035e-14
-5.33392295829118e-13
5.44724913233238e-14
-3.79647323941999e-13
1.26269483579779e-13
-2.59660791157449e-13
1.74489158566191e-13
-1.63752870045689e-13
2.08236890574683e-13
-8.56848074154581e-14
2.32784103187331e-13
-2.12663554660633e-14
2.51231787345577e-13
3.24601819611975e-14
2.65422730666623e-13
7.76774860977424e-14
2.76495743197092e-13
1.16065882688005e-13
2.85214298358615e-13
1.48976748819433e-13
2.92052376159894e-13
1.77535423222549e-13
2.97348207203143e-13
2.02715623222305e-13
3.01329420351551e-13
2.25382061420483e-13
3.04168589030316e-13
2.46344160867963e-13
3.05928022674208e-13
2.66374089655517e-13
3.06683876292498e-13
2.86243358525564e-13
3.06425580230876e-13
3.06752646036402e-13
3.05118890752605e-13
3.28746859463461e-13
3.02693859409959e-13
3.53173561250243e-13
2.99007131120112e-13
3.81131455784676e-13
2.93833693380157e-13
4.13940979492295e-13
2.86859116918395e-13
4.53236077930914e-13
2.77622111438142e-13
5.01171094474908e-13
2.65368174167432e-13
5.6071648702025e-13
2.48877173883101e-13
6.36087294194914e-13
2.26284767679711e-13
7.33568265025667e-13
1.94448261430081e-13
8.62877248710251e-13
1.48051827167572e-13
1.03959759861882e-12
7.79348084351725e-14
1.28926578349072e-12
-3.16565356203572e-14
1.65413013188897e-12
-2.07227063869278e-13
2.20386867137558e-12
-4.92905601696845e-13
3.04991353170058e-12
-9.55880231159153e-13
4.36080817984932e-12
-1.69121724641281e-12
6.3408521523631e-12
-2.76901689748888e-12
9.11027669407098e-12
-4.07545569025034e-12
1.21469251438472e-11
-4.66379161279498e-12
1.33900489836635e-11
-2.0302390936831e-12
8.65439808021072e-12
7.04365402823055e-12
1.51088818898016e-11
-5.92878722783841e-12
2.08958141406973e-11
-1.13479325244138e-11
1.251654172743e-11
-1.11604520373712e-11
-1.90976908917205e-12
-8.96048883874787e-12
-6.55295056611275e-12
-6.61370742138607e-12
-6.18742469547383e-12
-4.77956659088749e-12
-4.41162578195543e-12
-3.46696511542257e-12
-2.82794754296819e-12
-2.5525781822188e-12
-1.69954965350228e-12
-1.9097687762791e-12
-9.66920001984591e-13
-1.44682710348922e-12
-5.02335186911291e-13
-1.10320839147451e-12
-2.0780829092978e-13
-8.40248103716046e-13
-1.73372663102532e-14
-6.33424529078023e-13
1.09676203575308e-13
-4.66980015034618e-13
1.97546022689902e-13
-3.3054709672148e-13
2.60702835430769e-13
-2.1707727116734e-13
3.07689561178017e-13
-1.21600053816174e-13
3.4365365816319e-13
-4.04721916943709e-14
3.71748228944486e-13
2.90832344713202e-14
3.93970218110094e-13
8.92667659496139e-14
4.11657526926376e-13
1.41885663209927e-13
4.25678133733254e-13
1.88474526241072e-13
4.36645778378503e-13
2.3037183110621e-13
4.44985550174604e-13
2.68796384887989e-13
4.50993059430478e-13
3.04873952914711e-13
4.54822193501728e-13
3.39713982756682e-13
4.565682489931e-13
3.74404294395188e-13
4.56240435635101e-13
4.10076455666099e-13
4.53761060436997e-13
4.47926952998789e-13
4.48993884161171e-13
4.89281779418767e-13
4.41666287697623e-13
5.35656022528582e-13
4.31363589529203e-13
5.88835006402789e-13
4.17502962788812e-13
6.50987765964602e-13
3.99243224046498e-13
7.24886226554342e-13
3.75235836294823e-13
8.14192005793804e-13
3.43382886744308e-13
9.23901611555437e-13
3.00508089440762e-13
1.06110779773794e-12
2.41397432972378e-13
1.23621328834499e-12
1.57459118822675e-13
1.46502120775071e-12
3.41607737418203e-14
1.77209688170123e-12
-1.52990283076639e-13
2.19616181013353e-12
-4.44643475333212e-13
2.79792008607242e-12
-9.06880819262745e-13
3.66980887202403e-12
-1.63850834652901e-12
4.94108187413617e-12
-2.77104260483772e-12
6.74335980877051e-12
-4.37612841954433e-12
9.08771846263996e-12
-6.21810732691711e-12
1.13412846648824e-11
-6.70548249063131e-12
1.16074667215808e-11
-2.07433155564986e-12
6.13869946581653e-12
1.27266966983599e-11
2.13829473541068e-11
-2.86635729530165e-12
2.39217643315168e-11
-7.06519046595878e-12
1.69292797555573e-11
-7.85937201233318e-12
-8.98327700442728e-13
-6.99965730734091e-12
-7.2023232574194e-12
-5.67537730804951e-12
-7.30894501696734e-12
-4.45875691759583e-12
-5.43132263651716e-12
-3.47811089933613e-12
-3.61590288571239e-12
-2.72358528826671e-12
-2.26453350741875e-12
-2.14673500682637e-12
-1.35663234328849e-12
-1.70137266207813e-12
-7.62404785433864e-13
-1.3520901968644e-12
-3.73206794845628e-13
-1.07333355273932e-12
-1.13285362802001e-13
-8.47112273085333e-13
6.54307642355716e-14
-6.60736831283551e-13
1.92480872029995e-13
-5.05171933609477e-13
2.85890409729129e-13
-3.73846341941933e-13
3.56625690229433e-13
-2.61869081521457e-13
4.11488284502705e-13
-1.65510723917454e-13
4.54778782555086e-13
-8.18372270351658e-14
4.89282894850658e-13
-8.46368185811455e-15
5.16886916940605e-13
5.65931134016857e-14
5.38860949128302e-13
1.15045753629226e-13
5.56092656790804e-13
1.68401187393457e-13
5.6921399523596e-13
2.18047834277813e-13
5.78641391218273e-13
2.65272597008181e-13
5.84630512285319e-13
3.11338782549668e-13
5.87300457622229e-13
3.57496587097576e-13
5.86673841817968e-13
4.05033035507117e-13
5.82635563707524e-13
4.55321282749602e-13
5.74962250584013e-13
5.09855710923643e-13
5.63259733541644e-13
5.70336268488609e-13
5.4690790778173e-13
6.38731348166563e-13
5.25056712618928e-13
7.17408397857085e-13
4.96469204057388e-13
8.09298758913853e-13
4.59241688631878e-13
9.1813843609932e-13
4.10482948257891e-13
1.0488287728358e-12
3.4587147041581e-13
1.20795253194987e-12
2.58538208737971e-13
1.40455395080717e-12
1.37460723348165e-13
1.65130877827793e-12
-3.54919082600763e-14
1.96619812143364e-12
-2.90087598022798e-13
2.37479600604061e-12
-6.74537430536017e-13
2.91265342820791e-12
-1.26484629686827e-12
3.62658404472576e-12
-2.17093921188822e-12
4.56705032457548e-12
-3.52760298615525e-12
5.75049103004249e-12
-5.37165884050816e-12
7.06524768002531e-12
-7.33809392028879e-12
7.96378070991841e-12
-7.39878980638595e-12
7.2478484919734e-12
-1.1435625362559e-12
3.03585553526673e-12
1.71434488723409e-11
2.45453273199071e-11
-6.86694204493159e-13
2.47670325644368e-11
-3.11537545922714e-12
1.9562263168238e-11
-4.49617288236899e-12
6.8379598403814e-13
-4.76115336045896e-12
-6.74459418511565e-12
-4.4010698710718e-12
-7.48471091106464e-12
-3.81632943896368e-12
-5.83815747386157e-12
-3.21000938293619e-12
-4.04879272620293e-12
-2.66303495620765e-12
-2.64120134652707e-12
-2.19645283674162e-12
-1.65514764997086e-12
-1.80706345382953e-12
-9.85372501097697e-13
-1.48439315949166e-12
-5.30683900297754e-13
-1.21669650369414e-12
-2.16722718392179e-13
-9.93420280314329e-13
5.68343233050083e-15
-8.05817421091792e-13
1.67812403831709e-13
-6.46894101474846e-13
2.89393567705026e-13
-5.11131882629879e-13
3.8283585407832e-13
-3.94174280411596e-13
4.56082116291995e-13
-2.92543160772555e-13
5.14301157508528e-13
-2.03425564823482e-13
5.60938538574823e-13
-1.24474093637139e-13
5.9834733688144e-13
-5.37100280134804e-14
6.2816618805989e-13
1.05939708914655e-14
6.51537296593048e-13
6.99793583264477e-14
6.69279988597788e-13
1.25864777218746e-13
6.81935104069328e-13
1.79584093363045e-13
6.8984420386736e-13
2.32429337729986e-13
6.93168112718965e-13
2.85695666111867e-13
6.91925463769893e-13
3.40702669767635e-13
6.85977553450596e-13
3.98860835224346e-13
6.75008210997701e-13
4.61694605387872e-13
6.58509795045589e-13
5.30920344989037e-13
6.35669347417833e-13
6.08501561893038e-13
6.05391727580254e-13
6.96768620897625e-13
5.66076051331379e-13
7.98530493088667e-13
5.15346199434593e-13
9.17243595136947e-13
4.49674806188618e-13
1.05725734542251e-12
3.63864959140523e-13
1.22406295638362e-12
2.49929370192822e-13
1.42461351386998e-12
9.54133497161302e-14
1.66758494133945e-12
-1.19505117150657e-13
1.96343310676662e-12
-4.26337534876146e-13
2.32380988056495e-12
-8.74449278754227e-13
2.75911377652572e-12
-1.53852148901351e-12
3.27271282969636e-12
-2.52130034098536e-12
3.8444972506941e-12
-3.93375599064875e-12
4.39786539052156e-12
-5.75551822339398e-12
4.74242645465931e-12
-7.50664484310602e-12
4.49892902448282e-12
-6.96946822230712e-12
3.1831900483594e-12
3.66223090790121e-13
7.74047270293768e-13
1.97353732655205e-11
2.54284124682453e-11
4.90350048952259e-13
2.44255868500691e-11
-5.42801905592592e-13
2.07790702175795e-11
-2.10594823677558e-12
2.42307381626559e-12
-3.01689891917182e-12
-5.66696567831743e-12
-3.29289023929293e-12
-7.05060829930934e-12
-3.16560865135354e-12
-5.81374282433801e-12
-2.85627489018592e-12
-4.21078599104686e-12
-2.49125375270746e-12
-2.86178420881965e-12
-2.13374072416555e-12
-1.8702038182085e-12
-1.80930168974924e-12
-1.16876017793437e-12
-1.52548896554376e-12
-6.74479864186415e-13
-1.28129539086253e-12
-3.21690108975706e-13
-1.07242087008827e-12
-6.45948710422265e-14
-8.93731142032378e-13
1.27193317343298e-13
-7.40308178607824e-13
2.73581304436905e-13
-6.07843290936253e-13
3.87563424199059e-13
-4.9269242605354e-13
4.77731080997781e-13
-3.91797739683426e-13
5.49833277591436e-13
-3.02606434835807e-13
6.07816586320189e-13
-2.22936743151795e-13
6.54407135420281e-13
-1.50913817685529e-13
6.91550423829668e-13
-8.48818409754225e-14
7.20611510202671e-13
-2.33483877516058e-14
7.42573368206364e-13
3.50642883856404e-14
7.58094312577134e-13
9.16603321464028e-14
7.67588783563189e-13
1.47701384094067e-13
7.71261523969971e-13
2.04452639804087e-13
7.69126488078192e-13
2.63203941473989e-13
7.61020390857315e-13
3.25322822271762e-13
7.46548319668156e-13
3.92287009119459e-13
7.25092316707906e-13
4.65730680866315e-13
6.95682310962612e-13
5.47512548798801e-13
6.57000935374855e-13
6.39791877554498e-13
6.07147524998868e-13
7.45109976347013e-13
5.43370771842229e-13
8.66480857771173e-13
4.61679673644941e-13
1.00751952915149e-12
3.56291382642116e-13
1.17248037646772e-12
2.18598418096068e-13
1.36619786327798e-12
3.55927448382163e-14
1.5936831938492e-12
-2.12693914364999e-13
1.85905915824402e-12
-5.56847663808142e-13
2.16310127417071e-12
-1.04283730551671e-12
2.49793377142939e-12
-1.73661532523444e-12
2.83765625156208e-12
-2.72276802436441e-12
3.1189665601092e-12
-4.07458951174883e-12
3.21795056296999e-12
-5.71054315735719e-12
2.92275254917805e-12
-7.06175006512601e-12
2.01952465791497e-12
-5.90787491519845e-12
5.03866537875916e-13
2.04711633605259e-12
-4.85267890852521e-13
2.08779482182542e-11
2.50320293229651e-11
9.70502243068619e-13
2.35827396698965e-11
6.96971815283897e-13
2.12013826524892e-11
-7.79486309836305e-13
4.0371344792342e-12
-1.91146095161351e-12
-4.40636456008454e-12
-2.49156564406181e-12
-6.34952768239539e-12
-2.62585876395763e-12
-5.56418396429999e-12
-2.5118216985063e-12
-4.21336105712059e-12
-2.28182657266134e-12
-2.9827591413487e-12
-2.01481009219342e-12
-2.02980310869956e-12
-1.75039871782707e-12
-1.32686524608947e-12
-1.50653244794456e-12
-8.12859597782075e-13
-1.28924280395496e-12
-4.34133778033205e-13
-1.09880307682374e-12
-1.50717347309423e-13
-9.32990060671273e-13
6.52404375846169e-14
-7.88723757762704e-13
2.32762310787098e-13
-6.62864178908363e-13
3.64767779943693e-13
-5.52508986514486e-13
4.70075323090567e-13
-4.5508313156174e-13
5.54757706783221e-13
-3.68345474429032e-13
6.23094515908654e-13
-2.90335303618179e-13
6.78093628084387e-13
-2.19328741900839e-13
7.2193844054491e-13
-1.53781050039695e-13
7.56176314217553e-13
-9.22868683184093e-14
7.81930397608542e-13
-3.35371764937503e-14
7.99957290218781e-13
2.37085787073142e-14
8.10739425035812e-13
8.06561517975529e-14
8.14517943278008e-13
1.38509444665908e-13
8.11307104844658e-13
1.98499895947392e-13
8.0091697206949e-13
2.61917635761439e-13
7.82891641768457e-13
3.30158115246271e-13
7.56508901769381e-13
4.04736455609343e-13
7.20677993914292e-13
4.87356737007359e-13
6.73893704569906e-13
5.79955624066189e-13
6.14024169713274e-13
6.84747064061828e-13
5.38046359630318e-13
8.04256312053868e-13
4.41664269394403e-13
9.41332171135931e-13
3.18783898842145e-13
1.09904728145592e-12
1.60589405217507e-13
1.28036949239814e-12
-4.58017506541164e-14
1.48736168118356e-12
-3.19428006418571e-13
1.71951947102079e-12
-6.88273609828623e-13
1.97048942318718e-12
-1.19241155057948e-12
2.22183018171828e-12
-1.88563378684717e-12
2.43323760468416e-12
-2.83055326119503e-12
2.52502194922701e-12
-4.06088405121081e-12
2.36611412008633e-12
-5.44330835685094e-12
1.76612367550323e-12
-6.34878208503754e-12
6.34516563666941e-13
-4.65613251688503e-12
-8.08095535198242e-13
3.61498246106101e-12
-1.02185823761259e-12
2.12060158817871e-11
2.40725045446376e-11
1.0635137280552e-12
2.26182390537129e-11
1.05773335196072e-12
2.13140069555525e-11
-2.03965420048969e-13
5.39347787083316e-12
-1.29693049442535e-12
-3.22641210752562e-12
-1.95575677614599e-12
-5.60990284633737e-12
-2.20787111702352e-12
-5.23588635982412e-12
-2.20736829061526e-12
-4.14071437184047e-12
-2.06991241302588e-12
-3.04895270297807e-12
-1.87279125834643e-12
-2.15686130796628e-12
-1.65926948933258e-12
-1.47114624675865e-12
-1.4518753242609e-12
-9.5163201963832e-13
-1.26066915373307e-12
-5.57223155769252e-13
-1.08900393635447e-12
-2.54704372561786e-13
-9.36867719578668e-13
-1.96137563337756e-14
-8.0271214429547e-13
1.655188280127e-13
-6.84437949903616e-13
3.13054084065088e-13
-5.79841990254506e-13
4.31701445351442e-13
-4.86838246648823e-13
5.27650609696474e-13
-4.03509860114702e-13
6.0534934215753e-13
-3.28127720027247e-13
6.67995954016735e-13
-2.59135537440067e-13
7.17948172770452e-13
-1.9511269056352e-13
7.56891523503637e-13
-1.34754032392067e-13
7.86065209676612e-13
-7.68326329289633e-14
8.06306902814824e-13
-2.0179494004159e-14
8.18155638174552e-13
3.63464463492508e-14
8.21881885846404e-13
9.38770229748394e-14
8.1750799722433e-13
1.53576029035865e-13
8.04813014789129e-13
2.16650321130842e-13
7.83295915839529e-13
2.84395054838476e-13
7.521465372617e-13
3.5819817578756e-13
7.10180757942122e-13
4.39593591524289e-13
6.557481704659e-13
5.3028035248479e-13
5.86552931579951e-13
6.32135512046227e-13
4.99397707115068e-13
7.4720234311572e-13
3.89825493969237e-13
8.77612493870988e-13
2.51663013424297e-13
1.02538512306927e-12
7.62168695429369e-14
1.19194155472501e-12
-1.48782276695174e-13
1.37712327881083e-12
-4.40775201714263e-13
1.57732154691486e-12
-8.2427027216977e-13
1.78211480467531e-12
-1.33248701484267e-12
1.96841233695747e-12
-2.00648740334415e-12
2.09215986597728e-12
-2.88784051785844e-12
2.0751106121724e-12
-3.97594964217482e-12
1.80240786311392e-12
-5.10062056886685e-12
1.1256886127715e-12
-5.59859956685804e-12
3.14642537462069e-14
-3.48289437141281e-12
-1.20324905697639e-12
4.93257654760612e-12
-1.14180475548821e-12
2.12178126137866e-11
2.29673859294596e-11
9.69256169054641e-13
2.17125665974821e-11
9.82787316985964e-13
2.13591488597448e-11
-3.31250396474799e-14
6.45637532957766e-12
-9.75067354168519e-13
-2.24278368562247e-12
-1.59701708099628e-12
-4.95037515774799e-12
-1.8837388041697e-12
-4.91473934667092e-12
-1.94370676181961e-12
-4.04838479204084e-12
-1.86797779549289e-12
-3.09356251273306e-12
-1.7238082621793e-12
-2.27067813184041e-12
-1.55228724468987e-12
-1.61284666481416e-12
-1.37689884019514e-12
-1.09762624427195e-12
-1.20965287463148e-12
-6.95453798970626e-13
-1.05584838703564e-12
-3.79848767338502e-13
-9.17079376475476e-13
-1.30063092355486e-13
-7.93033835837476e-13
6.94630060480341e-14
-6.82504225942423e-13
2.30193236824282e-13
-5.83927247050768e-13
3.60480377509029e-13
-4.95663336381894e-13
4.66439790584493e-13
-4.16113809898083e-13
5.52560468553064e-13
-3.43783579102909e-13
6.22147669652788e-13
-2.77283833172346e-13
6.77666667123479e-13
-2.15325984959875e-13
7.20906430279895e-13
-1.56702290264264e-13
7.53186880463828e-13
-1.00272584089427e-13
7.75415063920336e-13
-4.49429049181608e-14
7.88176808638337e-13
1.03583308300975e-14
7.91765200530936e-13
6.66930616703088e-14
7.8621121180414e-13
1.25151988949637e-13
7.71266003198341e-13
1.86856603068467e-13
7.46395702020538e-13
2.52997227928289e-13
7.10721895394643e-13
3.24833653085138e-13
6.62990500479718e-13
4.03726992510979e-13
6.01450451141295e-13
4.91146057336362e-13
5.23698465016685e-13
5.88644451482316e-13
4.26455215399635e-13
6.97807696153115e-13
3.05234964869374e-13
8.20130345897303e-13
1.53961449323184e-13
9.56730633823072e-13
-3.56767674327485e-14
1.10780316862257e-12
-2.75017810300283e-13
1.27157183919744e-12
-5.79523749369964e-13
1.4424845110375e-12
-9.69911717575199e-13
1.6081804129283e-12
-1.47256705229626e-12
1.74464617153496e-12
-2.11685863213688e-12
1.81006377422789e-12
-2.92650543691855e-12
1.73633948546397e-12
-3.8745834322445e-12
1.43314147558778e-12
-4.76850778711517e-12
7.96925496942376e-13
-4.93123609021108e-12
-1.44449026876997e-13
-2.50648853687097e-12
-1.13492556904326e-12
5.96040027029455e-12
-1.05329579953969e-12
2.11662372187659e-11
2.19237361719342e-11
8.00070389887988e-13
2.09403675922428e-11
7.58652101786874e-13
2.14136367201945e-11
-3.19567109764219e-14
7.25072818171036e-12
-8.00714107975053e-13
-1.47301196169242e-12
-1.34287922274422e-12
-4.40920657937089e-12
-1.62385081191205e-12
-4.63644878598491e-12
-1.71346410304809e-12
-3.96256681475214e-12
-1.67893923596674e-12
-3.13252380978879e-12
-1.57503301689456e-12
-2.3794036732059e-12
-1.43809317793821e-12
-1.75489109029927e-12
-1.29055519939573e-12
-1.25053648220754e-12
-1.1450417797204e-12
-8.4661489275045e-13
-1.00797037348974e-12
-5.22854469597518e-13
-8.82063515375393e-13
-2.62196836117135e-13
-7.67964952093447e-13
-5.11579279431841e-14
-6.6520424780138e-13
1.20616856523138e-13
-5.72779024605469e-13
2.60950431696922e-13
-4.89458246208231e-13
3.75733043468569e-13
-4.13946723749093e-13
4.69391265730476e-13
-3.44971023225767e-13
5.45255298128554e-13
-2.81302738083936e-13
6.0583665778694e-13
-2.21787763105568e-13
6.5300156659298e-13
-1.65318753948345e-13
6.88116932138014e-13
-1.10843281432442e-13
7.12147047480153e-13
-5.73427797965648e-14
7.25710532898122e-13
-3.81862099040299e-15
7.2912157644982e-13
5.07219290427983e-14
7.22416220703233e-13
1.07291629997996e-13
7.05325713944055e-13
1.66928747182806e-13
6.77289700358044e-13
2.3071802683226e-13
6.37383386676646e-13
2.99791767767752e-13
5.8430447107182e-13
3.75344492140011e-13
5.16239731358972e-13
4.58616842569139e-13
4.30740514770159e-13
5.50865483458624e-13
3.24513421473844e-13
6.53264610156359e-13
1.9315646880292e-13
7.66752633720979e-13
3.08325393482915e-14
8.917042389411e-13
-1.70205469162316e-13
1.02736365253892e-12
-4.20164142080253e-13
1.17083934230474e-12
-7.32371051161996e-13
1.31548076281015e-12
-1.12378238621861e-12
1.44835141533032e-12
-1.61448934174543e-12
1.54657044486138e-12
-2.2238988804626e-12
1.57322560543297e-12
-2.96168430898301e-12
1.47298368712418e-12
-3.78250066318056e-12
1.17944345782385e-12
-4.48262417198233e-12
6.27153739888196e-13
-4.385520913799e-12
-1.38098086432737e-13
-1.74554948387929e-12
-9.02417402018213e-13
6.72168860797992e-12
-8.79165747856996e-13
2.11348142822033e-11
2.10317914782767e-11
6.17230858894457e-13
2.03167949197229e-11
5.25887185820574e-13
2.14763788758227e-11
-7.98425781771344e-14
7.82157197772405e-12
-6.93084216231833e-13
-8.94602585659833e-13
-1.14918977878986e-12
-3.98783786739261e-12
-1.40781574751809e-12
-4.41281376260613e-12
-1.50987364671749e-12
-3.89571138856155e-12
-1.50296221259538e-12
-3.17472428043824e-12
-1.42987844786732e-12
-2.48781975203616e-12
-1.32148374731709e-12
-1.89869179030642e-12
-1.19817124193689e-12
-1.40938852389913e-12
-1.07235030434849e-12
-1.00816346481088e-12
-9.50949299789408e-13
-6.80210804947477e-13
-8.37426173508043e-13
-4.11926514417193e-13
-7.33131070868795e-13
-1.91922982095525e-13
-6.38194790273394e-13
-1.10559302882592e-14
-5.52087942385947e-13
1.37841622218836e-13
-4.73941453792509e-13
2.60324988909895e-13
-4.02735569306598e-13
3.60672479985391e-13
-3.37405824455442e-13
4.42173056511394e-13
-2.76886375346553e-13
5.07338557211369e-13
-2.20148755189103e-13
5.58074495116868e-13
-1.66190877549956e-13
5.95775384488413e-13
-1.14046701435289e-13
6.21442761341925e-13
-6.27760216297351e-14
6.35720613919733e-13
-1.14539649747689e-14
6.38939516128286e-13
4.08406694865895e-14
6.31138011021579e-13
9.50401285453177e-14
6.12037059798804e-13
1.52097454624483e-13
5.81053924672586e-13
2.12992813601953e-13
5.37237166482479e-13
2.78731418805923e-13
4.79258263086131e-13
3.50348012497279e-13
4.05275864850117e-13
4.28872956680552e-13
3.12844659180979e-13
5.15288761568471e-13
1.98720865987609e-13
6.10407138996149e-13
5.86733141092384e-14
7.14693387023983e-13
-1.12788222625998e-13
8.27931111739165e-13
-3.22731649917483e-13
9.48665485546098e-13
-5.80130505190478e-13
1.07329090175396e-12
-8.96172723999627e-13
1.19466645065198e-12
-1.28429068915712e-12
1.30012832222076e-12
-1.75906416312612e-12
1.36894134466139e-12
-2.33183504964936e-12
1.36986190509996e-12
-3.00178754444784e-12
1.25980649029455e-12
-3.71177499901579e-12
9.92093513039418e-13
-4.25447254506298e-12
5.29723940558657e-13
-3.96272404387475e-12
-7.73517422413941e-14
-1.17736039326016e-12
-6.55817199079056e-13
7.2611365857774e-12
-6.87847991516739e-13
2.11251052094955e-11
2.03113379350321e-11
4.51880034962221e-13
1.98306396494176e-11
3.34942880173809e-13
2.15326266487449e-11
-1.28152430338701e-13
8.22114100938707e-12
-6.14416725417694e-13
-4.69476773494645e-13
-9.9247307071627e-13
-3.66912690200154e-12
-1.22342471305724e-12
-4.24030604721174e-12
-1.32825377432787e-12
-3.84881741177648e-12
-1.33966930997054e-12
-3.22090169317751e-12
-1.29020382580431e-12
-2.59466718316858e-12
-1.20537083421622e-12
-2.04082696361356e-12
-1.10311559268756e-12
-1.56898222485894e-12
-9.95110128227539e-13
-1.1736315855647e-12
-8.88371267956691e-13
-8.44594671098316e-13
-7.86772112793924e-13
-5.71387419176489e-13
-6.92153561016402e-13
-3.44638267132743e-13
-6.05108495994604e-13
-1.56440357922819e-13
-5.25496889620577e-13
-3.52462594067865e-16
-4.52761877053411e-13
1.28769133416735e-13
-3.86132994871298e-13
2.34991449461176e-13
-3.24737115827746e-13
3.21504932990753e-13
-2.67667382120189e-13
3.90788742268746e-13
-2.14014823524607e-13
4.44748852044074e-13
-1.62883450389392e-13
4.84792835344094e-13
-1.13394069687943e-13
5.11940940381256e-13
-6.46872479647467e-14
5.26856353240065e-13
-1.59149184104965e-14
5.29881601861957e-13
3.37715041082646e-14
5.21054003174322e-13
8.52233649127749e-14
5.00091831141178e-13
1.39307465892166e-13
4.66396272889255e-13
1.96897483707826e-13
4.19009083319956e-13
2.58878524397468e-13
3.56589361068365e-13
3.26128001862033e-13
2.77304060905133e-13
3.99486394750593e-13
1.78744863239335e-13
4.7968793890979e-13
5.77743342912163e-14
5.672333183542e-13
-8.96052673339839e-14
6.62202637068865e-13
-2.68465133493953e-13
7.63927439714576e-13
-4.85130321261615e-13
8.7047223698088e-13
-7.47317646516227e-13
9.77837581049986e-13
-1.06416940881074e-12
1.0788316614454e-12
-1.44594936585511e-12
1.16157795615203e-12
-1.90258099532436e-12
1.20790000457738e-12
-2.43913703953457e-12
1.19205008725331e-12
-3.04727379638207e-12
1.08146545789873e-12
-3.66309413420619e-12
8.44389318575093e-13
-4.08012681667261e-12
4.63281073694406e-13
-3.64528809326134e-12
-1.50317359256941e-14
-7.63506989522683e-13
-4.5079180906246e-13
7.63129490101675e-12
-5.14228309561992e-13
2.1121902441619e-11
1.97508086395915e-11
3.16782534228824e-13
1.9458177056662e-11
1.94057040319306e-13
2.15714234082647e-11
-1.62531508402495e-13
8.49404683046331e-12
-5.48851557503936e-13
-1.62497042960466e-13
-8.60497608718464e-13
-3.43367331243578e-12
-1.06327287099762e-12
-4.11191797937321e-12
-1.16530426927083e-12
-3.82010929662827e-12
-1.18848680885638e-12
-3.27037826667181e-12
-1.15701252310199e-12
-2.69840378444812e-12
-1.09155731602063e-12
-2.17835337149876e-12
-1.00754563431121e-12
-1.72503075665504e-12
-9.15610051175918e-13
-1.33767842532262e-12
-8.22547082442879e-13
-1.00991440626107e-12
-7.32386192025406e-13
-7.33992020738696e-13
-6.47280469383894e-13
-5.02397020336467e-13
-5.68160154883137e-13
-3.08432078854015e-13
-4.95191329743482e-13
-1.46413716590833e-13
-4.28079918181959e-13
-1.16519119968619e-14
-3.66274676066689e-13
9.96659330926264e-14
-3.09077844774195e-13
1.90587228232449e-13
-2.55729458759836e-13
2.63530391737224e-13
-2.05436604547288e-13
3.20370632793962e-13
-1.57407081369106e-13
3.62516524381045e-13
-1.10852530012688e-13
3.90993936016119e-13
-6.49926112299964e-14
4.06472782519057e-13
-1.90563863362005e-14
4.09306597405673e-13
2.77272699345492e-14
3.99530847290081e-13
7.61292183684845e-14
3.76865450391349e-13
1.26927028184936e-13
3.40703055471945e-13
1.80893796102711e-13
2.90090148547814e-13
2.38795337737476e-13
2.23692818415172e-13
3.01364890976611e-13
1.39711159079005e-13
3.69268838994724e-13
3.5802581076226e-14
4.43024021754122e-13
-9.10194202951522e-14
5.22871210926522e-13
-2.44478697979487e-13
6.08588320314051e-13
-4.29185303434519e-13
6.99178418750393e-13
-6.5069781248555e-13
7.92410794455094e-13
-9.15512527064984e-13
8.84151686865912e-13
-1.23089328431765e-12
9.67463495524485e-13
-1.60433320889233e-12
1.03155717630955e-12
-2.04194789272167e-12
1.06087292511989e-12
-2.54408976793481e-12
1.03462068362082e-12
-3.09724876812573e-12
9.28762026690835e-13
-3.63436718917512e-12
7.22317626991125e-13
-3.95212878768463e-12
4.10132440641045e-13
-3.41329569996027e-12
3.27189567479837e-14
-4.68410667111613e-13
-2.97557324123398e-13
7.87677597763728e-12
-3.72206029329601e-13
2.11121797454308e-11
1.93225229261667e-11
2.13702872619449e-13
1.91754891297184e-11
9.6307739585612e-14
2.15920197843139e-11
-1.81553629151728e-13
8.67791525694856e-12
-4.89862916922453e-13
5.74236052618642e-14
-7.4628067725545e-13
-3.26165585397027e-12
-9.22333284594915e-13
-4.01789139518929e-12
-1.01835769243411e-12
-3.80470187731108e-12
-1.0485917516152e-12
-3.31990363492252e-12
-1.03067232746652e-12
-2.79557989567804e-12
-9.8108200582029e-13
-2.30694718076195e-12
-9.12812550667077e-13
-1.87222700519957e-12
-8.35311742869742e-13
-1.49414836314792e-12
-7.54943176903262e-13
-1.16937009307373e-12
-6.75701701573811e-13
-8.92482221734811e-13
-5.99893433831625e-13
-6.57639601250141e-13
-5.28675187088983e-13
-4.59281339920695e-13
-4.62444703060382e-13
-2.9247441368575e-13
-4.01124393490352e-13
-1.52998467074939e-13
-3.44347512210824e-13
-3.73281071832813e-14
-2.9157488624168e-13
5.74167720163068e-14
-2.42180622666157e-13
1.33567856539286e-13
-1.95485804517006e-13
1.92949490100373e-13
-1.50798968907426e-13
2.36958503448685e-13
-1.07416456667364e-13
2.66609775312736e-13
-6.4642973465264e-14
2.82580929517795e-13
-2.17840931190088e-14
2.85226780596779e-13
2.18521676069998e-14
2.74584703345839e-13
6.69564319168924e-14
2.50376208641748e-13
1.14217893664449e-13
2.11994795863564e-13
1.64312761812707e-13
1.58499801539274e-13
2.17891892041525e-13
8.85825074440247e-14
2.75555345510083e-13
4.93751472137511e-16
3.37812949770489e-13
-1.08019084820101e-13
4.04997610296917e-13
-2.39765278462084e-13
4.77141061249361e-13
-3.98168904456589e-13
5.53791416626999e-13
-5.87359708603949e-13
6.33737050960447e-13
-8.12144923684939e-13
7.14607371230274e-13
-1.07787764649111e-12
7.92323003975553e-13
-1.39014102736569e-12
8.60414865246168e-13
-1.75407715446001e-12
9.09326756259978e-13
-2.17276861843656e-12
9.2600038142975e-13
-2.64312975160782e-12
8.93928852239318e-13