/*--------------------------------*- C++ -*----------------------------------*\
  =========                 |
  \\      /  F ield         | OpenFOAM: The Open Source CFD Toolbox
   \\    /   O peration     | Website:  https://openfoam.org
    \\  /    A nd           | Version:  10
     \\/     M anipulation  |
\*---------------------------------------------------------------------------*/
FoamFile
{
    format      ascii;
    class       volScalarField;
    location    "5.6";
    object      rho;
}
// * * * * * * * * * * * * * * * * * * * * * * * * * * * * * * * * * * * * * //

dimensions      [1 -3 0 0 0 0 0];

internalField   nonuniform List<scalar> 
2500
(
1.14422589784784
1.14426035677405
1.14431619037872
1.14435287002274
1.14437332325169
1.14438408828809
1.14438955505826
1.14439223014837
1.14439348270396
1.14439403829827
1.14439427770809
1.14439437575745
1.14439441451913
1.14439443169243
1.14439444027146
1.14439444622938
1.14439444912716
1.14439445215702
1.14439445541048
1.14439445769371
1.14439445965116
1.14439446136052
1.14439446277564
1.14439446364718
1.14439446454367
1.14439446532463
1.14439446562056
1.14439446576282
1.14439446569552
1.14439446534462
1.14439446470729
1.14439446350731
1.14439446201154
1.14439446004432
1.14439445748087
1.14439445341675
1.14439444552317
1.14439442840898
1.14439438440294
1.14439427908916
1.14439402785156
1.14439344934327
1.14439217351785
1.14438948375697
1.14438402859599
1.14437334212046
1.14435297490842
1.1443161481082
1.14425976950717
1.14422637286036
1.14827702297545
1.14843068640874
1.14859108354509
1.14869581820675
1.14875635114697
1.14878962249309
1.14880729519242
1.14881632323936
1.14882072456455
1.14882276173683
1.14882365849343
1.14882403321205
1.14882418225157
1.14882424000901
1.14882426231262
1.14882427164029
1.14882427544715
1.14882427788711
1.14882428001442
1.14882428158517
1.14882428296789
1.14882428425996
1.14882428536646
1.14882428609284
1.1488242867351
1.14882428730785
1.14882428758777
1.1488242877744
1.14882428789904
1.14882428778221
1.14882428747733
1.14882428684993
1.1488242854984
1.14882428322156
1.14882427922021
1.14882426972418
1.14882424495062
1.1488241805369
1.14882401578039
1.14882361369119
1.14882267290675
1.14882057302398
1.14881610848519
1.14880705636511
1.14878946396663
1.14875642266146
1.14869607052132
1.14859074442964
1.14842840003298
1.14827817452937
1.15227842273606
1.15252427469659
1.15274342898803
1.15288264639871
1.15296249555646
1.15300624927074
1.15302947474927
1.15304135570451
1.15304716532444
1.15304986658067
1.15305105980928
1.15305156017309
1.15305175954713
1.15305183574536
1.15305186398591
1.15305187445198
1.1530518782431
1.15305188001826
1.15305188124561
1.15305188214077
1.15305188297106
1.15305188382619
1.15305188460277
1.15305188512076
1.15305188552473
1.15305188589423
1.15305188609748
1.15305188626613
1.15305188645582
1.15305188649251
1.15305188649194
1.15305188630339
1.15305188515477
1.15305188291104
1.1530518785574
1.15305186700295
1.15305183517928
1.15305175045889
1.1530515331937
1.15305100130739
1.15304975776401
1.15304698729891
1.15304110866119
1.15302920496642
1.15300607434729
1.15296255342149
1.15288275718639
1.15274234990361
1.15251964551515
1.15227520083894
1.1556734661278
1.15594541356943
1.15615827096845
1.15628833454499
1.15636051960317
1.15639888296882
1.15641871251532
1.15642864054647
1.15643341460916
1.15643560605158
1.15643656415395
1.15643696258378
1.15643712012708
1.1564371796786
1.15643720131159
1.15643720892504
1.15643721145914
1.15643721243155
1.15643721298693
1.15643721338359
1.15643721379377
1.15643721428751
1.15643721478081
1.15643721511229
1.15643721533576
1.15643721554282
1.15643721566493
1.15643721578637
1.15643721595838
1.15643721604722
1.1564372161445
1.15643721628169
1.1564372155871
1.15643721397674
1.15643721098105
1.15643720257827
1.15643717866016
1.15643711373493
1.15643694502735
1.15643652661578
1.15643553578086
1.15643329765154
1.1564284734214
1.15641852073246
1.15639873617705
1.156360472233
1.15628808808989
1.15615639437187
1.15593900152987
1.15566442902665
1.15820933188572
1.15844971102175
1.15861996515697
1.15872002048968
1.15877369271164
1.15880133322248
1.15881524160418
1.15882206192684
1.15882529265004
1.15882676030699
1.15882739743619
1.15882766111684
1.15882776497006
1.1588278040069
1.15882781800677
1.15882782273697
1.15882782416471
1.15882782459221
1.15882782477072
1.15882782488542
1.15882782503176
1.15882782526968
1.15882782555096
1.15882782574148
1.15882782584428
1.15882782593868
1.15882782599952
1.15882782607352
1.15882782619479
1.15882782628402
1.15882782641102
1.15882782665624
1.15882782630113
1.15882782534968
1.15882782362038
1.15882781844729
1.15882780334836
1.15882776180161
1.15882765275548
1.15882737976744
1.15882672705854
1.15882523633326
1.15882197950728
1.1588151440129
1.15880125055722
1.15877361844232
1.15871962420544
1.15861788982688
1.15844295075018
1.15819685828313
1.15990606857325
1.16008657914611
1.16020436137131
1.16027105964021
1.1603056869049
1.1603229886075
1.1603314741004
1.16033555563594
1.1603374638308
1.16033832369024
1.16033869530124
1.16033884876945
1.16033890913676
1.16033893176893
1.16033893980585
1.16033894242666
1.16033894313038
1.16033894326266
1.16033894328109
1.16033894327573
1.16033894328298
1.16033894336661
1.16033894351006
1.16033894360748
1.160338943641
1.16033894367182
1.16033894369676
1.1603389437358
1.16033894380798
1.16033894387748
1.16033894399075
1.16033894421462
1.16033894406891
1.16033894359724
1.16033894273054
1.16033893988749
1.16033893142226
1.16033890791971
1.16033884577196
1.16033868919264
1.16033831229243
1.16033744431374
1.16033552697486
1.16033144129114
1.16032296295174
1.1603056421414
1.1602707157697
1.16020261748463
1.16008077198791
1.15989353986826
1.16093701675451
1.16105619428853
1.16112870951932
1.16116837139163
1.16118834074122
1.16119803940836
1.16120268236634
1.16120487599765
1.16120588981942
1.16120634380438
1.16120653952032
1.16120662033576
1.16120665214243
1.16120666405583
1.16120666824958
1.16120666956616
1.16120666985716
1.16120666985792
1.16120666982479
1.16120666980571
1.16120666978731
1.16120666979487
1.16120666985974
1.16120666990246
1.16120666990255
1.16120666990808
1.16120666991655
1.16120666993249
1.16120666997071
1.16120667001732
1.16120667009916
1.16120667025667
1.16120667021739
1.16120667002608
1.161206669642
1.16120666820583
1.16120666387185
1.16120665177906
1.16120661962746
1.16120653830258
1.16120634172583
1.16120588636854
1.16120487161836
1.16120268043292
1.16119804555531
1.16118833357631
1.16116815647583
1.16112750570479
1.1610519485609
1.16092676253856
1.16151228087127
1.16158302534902
1.16162353779622
1.16164498866123
1.16165548577801
1.16166045105684
1.16166277455095
1.16166385408836
1.16166434791184
1.16166456796855
1.161664662743
1.16166470192839
1.1616647173787
1.16166472316529
1.16166472518511
1.16166472578726
1.16166472589019
1.16166472586539
1.16166472582753
1.16166472580216
1.1616647257874
1.16166472578327
1.16166472580319
1.16166472581609
1.16166472580592
1.16166472580352
1.1616647258065
1.16166472581342
1.1616647258324
1.16166472586043
1.16166472591105
1.16166472599768
1.16166472600791
1.16166472595553
1.16166472579421
1.16166472511827
1.16166472305955
1.1616647172988
1.161664701924
1.16166466296243
1.16166456860036
1.16166434921824
1.16166385701479
1.1616627818999
1.16166046734052
1.16165550037032
1.16164488649552
1.16162282571464
1.16158030347572
1.16150506745709
1.16180984610448
1.16184821132275
1.16186904602552
1.16187974846905
1.16188484932216
1.16188720359812
1.16188828190652
1.16188877504983
1.16188899853214
1.16188909773893
1.16188914047037
1.16188915817937
1.16188916518044
1.16188916780328
1.16188916871175
1.16188916896779
1.16188916899672
1.16188916897373
1.16188916894641
1.16188916892712
1.16188916891788
1.16188916891414
1.16188916891648
1.16188916891565
1.16188916890793
1.16188916890425
1.16188916890537
1.16188916890911
1.16188916891821
1.16188916893377
1.16188916896177
1.16188916900575
1.1618891690196
1.16188916901305
1.16188916895644
1.1618891686583
1.16188916774104
1.16188916516862
1.16188915828653
1.1618891408453
1.16188909860367
1.16188900023162
1.1618887784356
1.16188828915614
1.16188721859686
1.16188486921518
1.16187971382402
1.16186867583345
1.16184664820149
1.16180534641224
1.16195366343177
1.16197290194917
1.16198287509217
1.16198785491676
1.16199017085595
1.16199121567034
1.16199168463006
1.16199189589479
1.16199199080692
1.16199203281006
1.16199205091843
1.16199205844592
1.16199206143138
1.16199206255019
1.16199206293358
1.1619920630344
1.16199206304037
1.16199206302684
1.16199206301079
1.16199206299907
1.16199206299242
1.16199206298888
1.16199206298819
1.16199206298618
1.16199206298172
1.16199206297927
1.16199206297983
1.16199206298191
1.16199206298637
1.16199206299449
1.16199206300874
1.1619920630298
1.16199206303837
1.16199206304039
1.16199206302408
1.16199206290271
1.16199206251638
1.16199206142961
1.16199205851888
1.16199205115301
1.16199203334362
1.16199199187311
1.16199189806683
1.16199168938539
1.16199122593769
1.16199018730627
1.1619878503897
1.16198270332636
1.16197208490798
1.16195112240318
1.16201904335474
1.16202804885731
1.16203253151988
1.16203471118496
1.16203570199548
1.16203613961195
1.16203633231338
1.16203641788086
1.16203645600785
1.1620364728377
1.16203648010384
1.16203648313495
1.16203648434136
1.16203648479358
1.16203648494669
1.16203648498456
1.16203648498475
1.16203648497741
1.16203648496917
1.16203648496302
1.16203648495924
1.1620364849571
1.16203648495618
1.16203648495474
1.16203648495264
1.16203648495152
1.16203648495196
1.16203648495317
1.16203648495541
1.16203648495949
1.16203648496635
1.16203648497603
1.16203648498101
1.16203648498316
1.16203648497924
1.16203648493309
1.16203648477849
1.16203648434106
1.16203648316943
1.16203648021257
1.16203647308591
1.1620364565185
1.16203641897878
1.16203633488067
1.1620361455535
1.16203571282308
1.16203471586501
1.16203245982039
1.16202765536807
1.16201772494617
1.16204715576917
1.16205112099226
1.16205302638362
1.16205393015033
1.16205433231805
1.16205450647394
1.16205458178921
1.16205461477126
1.16205462935184
1.16205463577368
1.16205463855122
1.1620546397143
1.16205464017894
1.16205464035318
1.1620546404115
1.16205464042515
1.16205464042447
1.16205464042098
1.16205464041722
1.16205464041439
1.1620546404126
1.1620546404116
1.16205464041111
1.16205464041046
1.1620546404097
1.1620546404094
1.16205464040982
1.16205464041058
1.1620546404118
1.16205464041386
1.16205464041709
1.16205464042145
1.16205464042418
1.16205464042575
1.16205464042515
1.16205464040842
1.16205464034947
1.16205464018086
1.16205463972951
1.16205463859452
1.16205463587077
1.16205462955791
1.16205461524926
1.16205458301184
1.16205450953433
1.16205433847478
1.16205393544548
1.16205299944653
1.16205094470018
1.16204652020981
1.16205864010951
1.16206029279667
1.16206106318206
1.16206142023002
1.1620615759823
1.16206164220134
1.16206167035449
1.16206168251969
1.16206168785669
1.16206169020259
1.16206169121926
1.16206169164668
1.16206169181811
1.16206169188247
1.1620616919038
1.1620616919086
1.16206169190821
1.16206169190679
1.16206169190531
1.16206169190422
1.16206169190357
1.16206169190327
1.16206169190318
1.16206169190307
1.16206169190297
1.16206169190308
1.16206169190349
1.16206169190405
1.1620616919048
1.16206169190591
1.16206169190748
1.16206169190949
1.16206169191096
1.16206169191199
1.1620616919122
1.16206169190652
1.16206169188505
1.16206169182262
1.16206169165552
1.16206169123698
1.16206169023766
1.16206168793104
1.16206168270778
1.16206167088776
1.16206164364569
1.16206157912828
1.16206142385894
1.16206105416954
1.1620602187546
1.16205835294506
1.16206311030144
1.16206376580781
1.16206406352824
1.16206419857862
1.16206425640537
1.16206428057367
1.16206429068552
1.16206429499922
1.16206429687767
1.16206429770179
1.1620642980597
1.16206429821081
1.16206429827169
1.16206429829463
1.16206429830223
1.16206429830396
1.1620642983039
1.16206429830347
1.16206429830305
1.16206429830279
1.16206429830271
1.16206429830278
1.16206429830294
1.16206429830311
1.16206429830331
1.16206429830359
1.162064298304
1.16206429830447
1.16206429830502
1.1620642983057
1.16206429830656
1.16206429830758
1.16206429830843
1.16206429830912
1.16206429830949
1.16206429830779
1.16206429830038
1.1620642982782
1.16206429821862
1.16206429806985
1.16206429771648
1.16206429690477
1.1620642950703
1.16206429090558
1.16206428121167
1.1620642578855
1.16206420060717
1.1620640609329
1.16206373647504
1.16206298782947
1.16206476766747
1.1620650162001
1.16206512661981
1.16206517572468
1.16206519638918
1.1620652048894
1.16206520839284
1.16206520986916
1.16206521050739
1.16206521078689
1.16206521090855
1.16206521096016
1.1620652109811
1.16206521098907
1.16206521099178
1.1620652109925
1.16206521099263
1.16206521099264
1.16206521099267
1.16206521099278
1.16206521099296
1.1620652109932
1.16206521099349
1.16206521099379
1.16206521099411
1.16206521099447
1.16206521099488
1.16206521099531
1.16206521099577
1.16206521099628
1.16206521099685
1.16206521099747
1.16206521099804
1.16206521099855
1.16206521099894
1.16206521099862
1.1620652109963
1.16206521098882
1.1620652109684
1.16206521091737
1.16206521079663
1.1620652105206
1.16206520989843
1.16206520848281
1.162065205159
1.16206519704252
1.16206517672846
1.16206512604466
1.1620650051853
1.16206471807851
1.1620653476258
1.1620654380519
1.16206547748953
1.16206549471216
1.16206550184384
1.16206550473432
1.16206550590907
1.16206550639832
1.16206550660834
1.16206550670015
1.16206550674023
1.16206550675735
1.16206550676438
1.16206550676715
1.16206550676819
1.16206550676859
1.1620655067688
1.162065506769
1.16206550676922
1.16206550676947
1.16206550676976
1.16206550677008
1.16206550677042
1.16206550677078
1.16206550677115
1.16206550677154
1.16206550677194
1.16206550677235
1.16206550677278
1.16206550677322
1.16206550677368
1.16206550677415
1.1620655067746
1.16206550677503
1.16206550677541
1.16206550677556
1.16206550677502
1.16206550677273
1.1620655067661
1.16206550674927
1.16206550670941
1.16206550661856
1.16206550641424
1.16206550594864
1.16206550484696
1.16206550211989
1.16206549516989
1.162065477445
1.16206543411786
1.16206532847277
1.16206553182897
1.16206556350784
1.16206557711195
1.16206558295554
1.16206558533934
1.16206558629228
1.16206558667451
1.16206558683193
1.16206558689903
1.16206558692832
1.16206558694117
1.16206558694673
1.16206558694909
1.16206558695011
1.1620655869506
1.16206558695089
1.16206558695115
1.16206558695142
1.1620655869517
1.16206558695201
1.16206558695235
1.1620655869527
1.16206558695307
1.16206558695344
1.16206558695383
1.16206558695423
1.16206558695463
1.16206558695504
1.16206558695545
1.16206558695586
1.16206558695628
1.16206558695669
1.1620655869571
1.1620655869575
1.16206558695787
1.16206558695816
1.16206558695823
1.16206558695772
1.16206558695579
1.16206558695057
1.16206558693795
1.16206558690905
1.16206558684405
1.1620655866956
1.16206558634175
1.16206558545458
1.16206558315418
1.16206557716282
1.1620655621702
1.162065524746
1.16206557614176
1.16206558685913
1.16206559140286
1.16206559332563
1.16206559409918
1.16206559440443
1.16206559452535
1.1620655945746
1.16206559459545
1.16206559460455
1.16206559460859
1.1620655946104
1.16206559461124
1.16206559461169
1.162065594612
1.16206559461227
1.16206559461254
1.16206559461283
1.16206559461314
1.16206559461347
1.16206559461382
1.16206559461419
1.16206559461456
1.16206559461495
1.16206559461534
1.16206559461574
1.16206559461614
1.16206559461654
1.16206559461695
1.16206559461735
1.16206559461775
1.16206559461815
1.16206559461854
1.16206559461892
1.16206559461929
1.16206559461963
1.1620655946199
1.16206559461998
1.16206559461961
1.1620655946182
1.16206559461449
1.16206559460572
1.16206559458578
1.16206559453993
1.16206559442967
1.16206559414967
1.16206559341131
1.16206559144901
1.16206558642862
1.16206557362808
1.16206557272595
1.16206557623644
1.16206557770897
1.16206557832373
1.16206557856788
1.16206557866303
1.16206557870025
1.16206557871523
1.16206557872153
1.1620655787243
1.16206557872556
1.16206557872619
1.16206557872656
1.16206557872683
1.16206557872708
1.16206557872734
1.16206557872762
1.16206557872792
1.16206557872824
1.16206557872858
1.16206557872893
1.1620655787293
1.16206557872968
1.16206557873007
1.16206557873046
1.16206557873086
1.16206557873126
1.16206557873166
1.16206557873206
1.16206557873246
1.16206557873286
1.16206557873325
1.16206557873363
1.16206557873401
1.16206557873438
1.16206557873473
1.16206557873506
1.16206557873533
1.16206557873546
1.16206557873527
1.16206557873439
1.16206557873198
1.1620655787262
1.16206557871259
1.16206557867933
1.16206557859355
1.16206557836334
1.16206557773936
1.162065576109
1.16206557187066
1.16206555355012
1.16206555466591
1.16206555512973
1.16206555532101
1.16206555539604
1.16206555542489
1.16206555543602
1.16206555544044
1.16206555544229
1.16206555544312
1.16206555544355
1.16206555544382
1.16206555544404
1.16206555544426
1.16206555544449
1.16206555544475
1.16206555544503
1.16206555544534
1.16206555544566
1.162065555446
1.16206555544636
1.16206555544673
1.16206555544711
1.1620655554475
1.16206555544789
1.16206555544829
1.16206555544869
1.16206555544909
1.16206555544949
1.16206555544989
1.16206555545028
1.16206555545067
1.16206555545105
1.16206555545142
1.16206555545179
1.16206555545215
1.16206555545249
1.16206555545282
1.1620655554531
1.16206555545329
1.16206555545328
1.16206555545282
1.16206555545137
1.16206555544762
1.16206555543801
1.16206555541258
1.16206555534283
1.16206555514992
1.16206555463555
1.16206555327401
1.16206552932595
1.16206552967072
1.16206552981285
1.16206552987078
1.16206552989322
1.16206552990171
1.16206552990492
1.16206552990617
1.1620655299067
1.16206552990697
1.16206552990715
1.16206552990732
1.1620655299075
1.1620655299077
1.16206552990794
1.1620655299082
1.16206552990848
1.16206552990879
1.16206552990911
1.16206552990945
1.16206552990981
1.16206552991018
1.16206552991056
1.16206552991095
1.16206552991134
1.16206552991174
1.16206552991214
1.16206552991254
1.16206552991294
1.16206552991333
1.16206552991372
1.16206552991411
1.16206552991449
1.16206552991486
1.16206552991522
1.16206552991558
1.16206552991593
1.16206552991627
1.1620655299166
1.1620655299169
1.16206552991714
1.16206552991726
1.16206552991709
1.16206552991626
1.16206552991372
1.16206552990652
1.16206552988605
1.16206552982807
1.16206552967026
1.1620655292451
1.16206550352971
1.16206550363339
1.16206550367571
1.16206550369276
1.16206550369926
1.16206550370166
1.16206550370254
1.16206550370287
1.16206550370303
1.16206550370314
1.16206550370326
1.16206550370341
1.16206550370358
1.16206550370378
1.16206550370402
1.16206550370428
1.16206550370456
1.16206550370487
1.1620655037052
1.16206550370554
1.1620655037059
1.16206550370627
1.16206550370665
1.16206550370704
1.16206550370743
1.16206550370783
1.16206550370822
1.16206550370862
1.16206550370902
1.16206550370941
1.1620655037098
1.16206550371019
1.16206550371056
1.16206550371093
1.1620655037113
1.16206550371165
1.162065503712
1.16206550371234
1.16206550371268
1.162065503713
1.16206550371331
1.16206550371358
1.16206550371377
1.16206550371378
1.16206550371329
1.16206550371144
1.1620655037057
1.16206550368882
1.16206550364179
1.16206550351257
1.16206547725664
1.16206547728697
1.16206547729912
1.16206547730395
1.16206547730575
1.16206547730639
1.16206547730661
1.16206547730669
1.16206547730676
1.16206547730684
1.16206547730695
1.1620654773071
1.16206547730727
1.16206547730748
1.16206547730772
1.16206547730798
1.16206547730827
1.16206547730858
1.1620654773089
1.16206547730925
1.16206547730961
1.16206547730998
1.16206547731036
1.16206547731074
1.16206547731113
1.16206547731153
1.16206547731193
1.16206547731233
1.16206547731272
1.16206547731311
1.1620654773135
1.16206547731389
1.16206547731426
1.16206547731463
1.16206547731499
1.16206547731534
1.16206547731569
1.16206547731602
1.16206547731636
1.16206547731668
1.162065477317
1.1620654773173
1.16206547731758
1.1620654773178
1.16206547731788
1.16206547731755
1.16206547731609
1.16206547731141
1.16206547729789
1.16206547725968
1.16206545084247
1.16206545085104
1.1620654508543
1.16206545085557
1.16206545085603
1.16206545085618
1.16206545085624
1.16206545085627
1.16206545085633
1.16206545085641
1.16206545085653
1.16206545085668
1.16206545085686
1.16206545085708
1.16206545085732
1.16206545085759
1.16206545085788
1.16206545085819
1.16206545085851
1.16206545085886
1.16206545085922
1.16206545085959
1.16206545085997
1.16206545086035
1.16206545086074
1.16206545086114
1.16206545086154
1.16206545086193
1.16206545086233
1.16206545086272
1.16206545086311
1.16206545086349
1.16206545086386
1.16206545086422
1.16206545086458
1.16206545086493
1.16206545086527
1.1620654508656
1.16206545086593
1.16206545086625
1.16206545086656
1.16206545086686
1.16206545086715
1.16206545086741
1.16206545086762
1.1620654508677
1.16206545086744
1.16206545086628
1.16206545086265
1.16206545085171
1.16206542438747
1.16206542438975
1.16206542439046
1.16206542439073
1.16206542439083
1.16206542439087
1.1620654243909
1.16206542439094
1.162065424391
1.1620654243911
1.16206542439123
1.16206542439139
1.16206542439158
1.1620654243918
1.16206542439205
1.16206542439232
1.16206542439261
1.16206542439292
1.16206542439325
1.1620654243936
1.16206542439395
1.16206542439432
1.1620654243947
1.16206542439509
1.16206542439548
1.16206542439588
1.16206542439627
1.16206542439667
1.16206542439706
1.16206542439745
1.16206542439784
1.16206542439821
1.16206542439858
1.16206542439895
1.1620654243993
1.16206542439964
1.16206542439998
1.16206542440031
1.16206542440062
1.16206542440093
1.16206542440123
1.16206542440152
1.16206542440179
1.16206542440205
1.16206542440228
1.16206542440244
1.1620654244025
1.16206542440232
1.16206542440154
1.16206542439858
1.16206539792092
1.16206539792142
1.16206539792142
1.16206539792143
1.16206539792145
1.16206539792147
1.16206539792151
1.16206539792157
1.16206539792165
1.16206539792177
1.16206539792191
1.16206539792208
1.16206539792228
1.16206539792251
1.16206539792276
1.16206539792303
1.16206539792333
1.16206539792364
1.16206539792397
1.16206539792432
1.16206539792468
1.16206539792505
1.16206539792543
1.16206539792581
1.1620653979262
1.1620653979266
1.16206539792699
1.16206539792739
1.16206539792778
1.16206539792817
1.16206539792855
1.16206539792893
1.16206539792929
1.16206539792965
1.16206539793
1.16206539793034
1.16206539793067
1.16206539793099
1.1620653979313
1.1620653979316
1.16206539793188
1.16206539793216
1.16206539793241
1.16206539793265
1.16206539793286
1.16206539793303
1.16206539793315
1.16206539793323
1.16206539793324
1.16206539793256
1.16206537145114
1.16206537145116
1.16206537145097
1.16206537145093
1.16206537145095
1.16206537145099
1.16206537145104
1.16206537145112
1.16206537145123
1.16206537145136
1.16206537145151
1.16206537145169
1.1620653714519
1.16206537145214
1.16206537145239
1.16206537145267
1.16206537145297
1.16206537145329
1.16206537145362
1.16206537145397
1.16206537145433
1.1620653714547
1.16206537145508
1.16206537145546
1.16206537145585
1.16206537145624
1.16206537145664
1.16206537145703
1.16206537145742
1.16206537145781
1.16206537145819
1.16206537145856
1.16206537145893
1.16206537145928
1.16206537145963
1.16206537145997
1.16206537146029
1.1620653714606
1.1620653714609
1.16206537146119
1.16206537146146
1.16206537146172
1.16206537146195
1.16206537146217
1.16206537146236
1.16206537146251
1.16206537146263
1.16206537146276
1.16206537146298
1.16206537146293
1.16206534498047
1.16206534498036
1.16206534498014
1.1620653449801
1.16206534498014
1.1620653449802
1.16206534498028
1.16206534498038
1.1620653449805
1.16206534498065
1.16206534498082
1.16206534498101
1.16206534498123
1.16206534498147
1.16206534498173
1.16206534498201
1.16206534498232
1.16206534498263
1.16206534498297
1.16206534498332
1.16206534498368
1.16206534498405
1.16206534498443
1.16206534498481
1.1620653449852
1.1620653449856
1.16206534498599
1.16206534498638
1.16206534498677
1.16206534498715
1.16206534498753
1.1620653449879
1.16206534498827
1.16206534498862
1.16206534498896
1.16206534498929
1.16206534498961
1.16206534498991
1.1620653449902
1.16206534499048
1.16206534499074
1.16206534499098
1.1620653449912
1.16206534499139
1.16206534499155
1.16206534499168
1.16206534499178
1.16206534499191
1.16206534499218
1.1620653449923
1.16206531850956
1.16206531850942
1.1620653185092
1.16206531850917
1.16206531850923
1.16206531850932
1.16206531850943
1.16206531850955
1.16206531850969
1.16206531850985
1.16206531851003
1.16206531851024
1.16206531851046
1.16206531851071
1.16206531851098
1.16206531851127
1.16206531851157
1.16206531851189
1.16206531851223
1.16206531851258
1.16206531851294
1.16206531851331
1.16206531851369
1.16206531851408
1.16206531851447
1.16206531851486
1.16206531851525
1.16206531851564
1.16206531851603
1.16206531851641
1.16206531851679
1.16206531851715
1.16206531851751
1.16206531851786
1.1620653185182
1.16206531851853
1.16206531851884
1.16206531851913
1.16206531851942
1.16206531851968
1.16206531851992
1.16206531852015
1.16206531852035
1.16206531852052
1.16206531852066
1.16206531852077
1.16206531852085
1.16206531852096
1.16206531852123
1.16206531852139
1.16206529203856
1.16206529203843
1.16206529203822
1.16206529203822
1.1620652920383
1.16206529203841
1.16206529203853
1.16206529203868
1.16206529203884
1.16206529203901
1.16206529203921
1.16206529203942
1.16206529203966
1.16206529203991
1.16206529204019
1.16206529204048
1.16206529204079
1.16206529204111
1.16206529204145
1.1620652920418
1.16206529204217
1.16206529204254
1.16206529204292
1.1620652920433
1.16206529204369
1.16206529204408
1.16206529204447
1.16206529204486
1.16206529204525
1.16206529204563
1.162065292046
1.16206529204637
1.16206529204673
1.16206529204707
1.1620652920474
1.16206529204772
1.16206529204803
1.16206529204832
1.16206529204859
1.16206529204884
1.16206529204907
1.16206529204928
1.16206529204946
1.16206529204962
1.16206529204974
1.16206529204982
1.16206529204987
1.16206529204997
1.16206529205023
1.16206529205039
1.16206526556753
1.16206526556741
1.16206526556722
1.16206526556724
1.16206526556734
1.16206526556748
1.16206526556762
1.16206526556779
1.16206526556796
1.16206526556816
1.16206526556836
1.16206526556859
1.16206526556883
1.1620652655691
1.16206526556938
1.16206526556967
1.16206526556999
1.16206526557031
1.16206526557066
1.16206526557101
1.16206526557137
1.16206526557174
1.16206526557212
1.16206526557251
1.1620652655729
1.16206526557329
1.16206526557368
1.16206526557406
1.16206526557445
1.16206526557483
1.1620652655752
1.16206526557556
1.16206526557591
1.16206526557626
1.16206526557659
1.1620652655769
1.1620652655772
1.16206526557748
1.16206526557774
1.16206526557798
1.1620652655782
1.1620652655784
1.16206526557856
1.16206526557869
1.16206526557879
1.16206526557885
1.16206526557888
1.16206526557895
1.1620652655792
1.16206526557935
1.16206523909649
1.16206523909637
1.1620652390962
1.16206523909624
1.16206523909637
1.16206523909653
1.1620652390967
1.16206523909688
1.16206523909707
1.16206523909728
1.1620652390975
1.16206523909774
1.16206523909799
1.16206523909826
1.16206523909855
1.16206523909885
1.16206523909917
1.1620652390995
1.16206523909984
1.1620652391002
1.16206523910056
1.16206523910093
1.16206523910131
1.1620652391017
1.16206523910209
1.16206523910247
1.16206523910286
1.16206523910325
1.16206523910363
1.16206523910401
1.16206523910438
1.16206523910474
1.16206523910509
1.16206523910543
1.16206523910575
1.16206523910606
1.16206523910635
1.16206523910663
1.16206523910688
1.16206523910711
1.16206523910732
1.16206523910749
1.16206523910764
1.16206523910775
1.16206523910783
1.16206523910787
1.16206523910788
1.16206523910792
1.16206523910815
1.1620652391083
1.16206521262542
1.16206521262532
1.16206521262517
1.16206521262524
1.16206521262539
1.16206521262557
1.16206521262576
1.16206521262596
1.16206521262617
1.16206521262639
1.16206521262663
1.16206521262688
1.16206521262714
1.16206521262742
1.16206521262771
1.16206521262801
1.16206521262834
1.16206521262867
1.16206521262901
1.16206521262937
1.16206521262974
1.16206521263011
1.16206521263049
1.16206521263087
1.16206521263126
1.16206521263165
1.16206521263204
1.16206521263242
1.1620652126328
1.16206521263318
1.16206521263354
1.1620652126339
1.16206521263425
1.16206521263458
1.1620652126349
1.16206521263521
1.16206521263549
1.16206521263576
1.162065212636
1.16206521263622
1.16206521263642
1.16206521263658
1.16206521263671
1.16206521263681
1.16206521263686
1.16206521263688
1.16206521263686
1.16206521263688
1.16206521263709
1.16206521263723
1.16206518615434
1.16206518615426
1.16206518615413
1.16206518615423
1.1620651861544
1.16206518615461
1.16206518615482
1.16206518615504
1.16206518615526
1.1620651861555
1.16206518615574
1.162065186156
1.16206518615627
1.16206518615656
1.16206518615686
1.16206518615717
1.16206518615749
1.16206518615783
1.16206518615818
1.16206518615853
1.1620651861589
1.16206518615928
1.16206518615965
1.16206518616004
1.16206518616043
1.16206518616081
1.1620651861612
1.16206518616158
1.16206518616196
1.16206518616233
1.1620651861627
1.16206518616305
1.1620651861634
1.16206518616373
1.16206518616404
1.16206518616434
1.16206518616462
1.16206518616488
1.16206518616511
1.16206518616532
1.1620651861655
1.16206518616565
1.16206518616577
1.16206518616585
1.16206518616589
1.16206518616588
1.16206518616584
1.16206518616583
1.16206518616602
1.16206518616614
1.16206515968325
1.16206515968318
1.16206515968308
1.16206515968321
1.16206515968341
1.16206515968363
1.16206515968387
1.1620651596841
1.16206515968434
1.16206515968459
1.16206515968485
1.16206515968512
1.1620651596854
1.16206515968569
1.16206515968599
1.16206515968631
1.16206515968664
1.16206515968698
1.16206515968733
1.16206515968769
1.16206515968806
1.16206515968843
1.16206515968881
1.1620651596892
1.16206515968958
1.16206515968997
1.16206515969035
1.16206515969074
1.16206515969111
1.16206515969148
1.16206515969185
1.1620651596922
1.16206515969254
1.16206515969286
1.16206515969317
1.16206515969347
1.16206515969374