/*--------------------------------*- C++ -*----------------------------------*\
  =========                 |
  \\      /  F ield         | OpenFOAM: The Open Source CFD Toolbox
   \\    /   O peration     | Website:  https://openfoam.org
    \\  /    A nd           | Version:  10
     \\/     M anipulation  |
\*---------------------------------------------------------------------------*/
FoamFile
{
    format      ascii;
    class       volScalarField;
    location    "5.6";
    object      T;
}
// * * * * * * * * * * * * * * * * * * * * * * * * * * * * * * * * * * * * * //

dimensions      [0 0 0 1 0 0 0];

internalField   nonuniform List<scalar> 
2500
(
304.677440222297
304.668264990947
304.653399585558
304.64363461211
304.638189759361
304.635324078095
304.633868830102
304.633156729308
304.632823304058
304.632675407378
304.632611677667
304.632585577463
304.632575259364
304.632570687987
304.632568404363
304.632566818469
304.632566047173
304.632565240722
304.632564374754
304.63256376706
304.632563246089
304.632562791162
304.632562414565
304.632562182667
304.632561944132
304.632561736348
304.63256165768
304.632561619918
304.632561637938
304.632561731452
304.632561901211
304.63256222074
304.632562619006
304.632563142767
304.632563825235
304.63256490717
304.632567008481
304.632571564268
304.632583278525
304.632611312607
304.632678190934
304.632832187325
304.633171807033
304.633887813299
304.63533997117
304.638184739472
304.643606693104
304.653410842437
304.668421358514
304.677313742035
303.602530389632
303.561907472887
303.519516008507
303.49184200562
303.475849709287
303.467060415935
303.462392025075
303.460007246706
303.458844640668
303.458306526532
303.458069651092
303.4579706705
303.457931302304
303.457916045954
303.457910154608
303.457907690815
303.457906685326
303.457906040902
303.457905479068
303.457905064251
303.457904699104
303.457904357905
303.457904065727
303.457903873959
303.457903704414
303.457903553229
303.457903479394
303.457903430204
303.457903397385
303.457903428353
303.457903508987
303.457903674813
303.457904031914
303.457904633428
303.457905690462
303.457908198889
303.457914742814
303.457931757538
303.457975277457
303.458081488027
303.458329993426
303.458884672612
303.460063976935
303.462455115298
303.467102295689
303.475830819816
303.491775345818
303.51960562418
303.562511829364
303.602225924115
302.548234023778
302.483695622173
302.426188811117
302.389669058253
302.368726868513
302.357252729378
302.351162346124
302.348046915535
302.346523537242
302.345815228521
302.345502347705
302.345371145725
302.345318867302
302.345298887203
302.345291482237
302.345288737972
302.345287743972
302.345287278585
302.345286956844
302.345286722213
302.345286504593
302.345286280463
302.345286076935
302.345285941214
302.345285835392
302.345285738609
302.34528568542
302.345285641304
302.345285591669
302.345285582154
302.345285582405
302.345285631946
302.345285933228
302.345286521656
302.345287663328
302.345290693139
302.345299037799
302.345321252661
302.345378222513
302.345517690245
302.345843764444
302.346570221026
302.348111697585
302.351233092424
302.357298603238
302.368711696252
302.389640002841
302.426471915989
302.484910573691
302.549079987373
301.659425635926
301.588457312278
301.532932618184
301.499015082394
301.48019420161
301.470192640126
301.465023217612
301.462435116775
301.461190600326
301.460619332272
301.460369573627
301.460265710887
301.460224642543
301.460209118718
301.460203479501
301.460201494904
301.460200834393
301.46020058099
301.4602004363
301.460200332987
301.460200226157
301.460200097544
301.460199969052
301.460199882743
301.460199824593
301.460199770722
301.460199738993
301.460199707444
301.460199662709
301.460199639653
301.460199614398
301.460199578736
301.460199759899
301.460200179782
301.460200960786
301.460203151308
301.460209386361
301.460226311147
301.460270289933
301.460379361646
301.460637653168
301.461221091822
301.462478686467
301.465073216136
301.470230911364
301.480206554763
301.49907934799
301.533422049615
301.590130238571
301.661784564956
300.99894424
300.936486745637
300.892265445045
300.866283434552
300.852347873169
300.845171740187
300.841560923535
300.839790301047
300.838951581012
300.838570567819
300.838405165319
300.838336712361
300.83830975154
300.838299617424
300.838295983052
300.83829475514
300.83829438457
300.838294273672
300.838294227417
300.838294197728
300.838294159832
300.838294098163
300.83829402524
300.838293975883
300.838293949299
300.838293924897
300.838293909207
300.838293890102
300.838293858724
300.838293835665
300.838293802796
300.838293739236
300.838293831521
300.838294078617
300.838294527643
300.838295870692
300.838299790538
300.838310576381
300.838338885443
300.838409754777
300.838579201981
300.838966203994
300.839811700698
300.841586262271
300.845193204538
300.852367158765
300.866386334475
300.892804409973
300.938242909856
301.002185955666
300.558629383385
300.511862174763
300.481354655749
300.464081462168
300.455114644495
300.450634525449
300.448437332843
300.447380491196
300.446886400379
300.446663756673
300.446567535445
300.446527797982
300.446512167143
300.446506307063
300.446504226137
300.446503547605
300.446503365469
300.4465033313
300.446503326615
300.446503328092
300.446503326309
300.446503304752
300.446503267707
300.446503242584
300.446503234007
300.446503226132
300.446503219779
300.446503209777
300.44650319119
300.446503173301
300.446503144074
300.446503086207
300.446503124032
300.446503246256
300.44650347076
300.446504206996
300.446506398976
300.446512484565
300.446528576546
300.446569119689
300.446666710566
300.446891456698
300.447387915301
300.448445831179
300.450641171672
300.455126238826
300.464170514093
300.481806308837
300.513366486958
300.561875900432
300.29171713967
300.260893457397
300.242141454563
300.231886123469
300.226722933581
300.224215351623
300.223014933707
300.222447782609
300.222185665415
300.222068290658
300.222017689682
300.221996795458
300.221988572125
300.221985492063
300.221984407866
300.221984067548
300.22198399239
300.221983992275
300.221984000927
300.22198400595
300.221984010801
300.221984008941
300.22198399227
300.221983981325
300.221983981406
300.22198398008
300.221983977996
300.221983973981
300.221983964204
300.221983952257
300.2219839312
300.221983890577
300.221983900829
300.221983950386
300.221984049777
300.221984421174
300.221985541777
300.221988668359
300.221996981007
300.222018007061
300.222068830708
300.222186560371
300.222448917691
300.223015436509
300.224213765342
300.226724789136
300.231941695255
300.242452737803
300.26199145282
300.294369554976
300.142984329076
300.124704568547
300.114237505297
300.108695613638
300.105983728303
300.104700986734
300.104100733669
300.10382184606
300.103694271933
300.103637422643
300.103612938718
300.103602815642
300.103598824277
300.103597329435
300.103596807703
300.103596652216
300.103596625704
300.103596632193
300.103596642059
300.103596648701
300.103596652607
300.103596653772
300.103596648724
300.103596645494
300.103596648222
300.103596648949
300.103596648282
300.103596646599
300.1035966418
300.103596634663
300.103596621688
300.10359659941
300.103596596865
300.10359661049
300.103596652258
300.103596826966
300.103597358899
300.103598847205
300.103602819194
300.103612884571
300.103637262074
300.103693937191
300.103821092889
300.104098838065
300.104696782984
300.105979961533
300.108722011065
300.114421480253
300.125407839063
300.144848341153
300.066104229794
300.056195790647
300.050815165056
300.048051301112
300.046734043657
300.0461260732
300.045847610614
300.045720261351
300.045662549357
300.045636930253
300.045625895339
300.045621322218
300.04561951432
300.045618837057
300.045618602521
300.04561853647
300.045618529076
300.045618535093
300.045618542234
300.045618547304
300.045618549784
300.045618550846
300.045618550342
300.045618550656
300.045618552754
300.045618553807
300.045618553624
300.045618552763
300.045618550516
300.045618546603
300.045618539475
300.045618528217
300.045618524738
300.045618526526
300.045618541237
300.045618618318
300.045618855274
300.045619519657
300.045621296965
300.045625801057
300.045636709594
300.045662113234
300.045719389853
300.045845741396
300.046122202913
300.046728909513
300.048060251084
300.050910769765
300.056599482449
300.067266394289
300.028957614713
300.023990103972
300.021415037892
300.020129263193
300.01953129877
300.01926153339
300.019140450669
300.019085903341
300.019061397589
300.019050552643
300.019045877197
300.019043933684
300.019043162905
300.01904287409
300.019042775164
300.019042749202
300.019042747738
300.019042751311
300.019042755538
300.019042758654
300.019042760464
300.019042761474
300.01904276175
300.019042762372
300.019042763626
300.019042764361
300.019042764324
300.01904276389
300.019042762843
300.019042760851
300.019042757273
300.019042751938
300.019042749822
300.019042749398
300.019042753702
300.019042785129
300.019042884962
300.019043165645
300.019043917262
300.01904581917
300.019050417529
300.019061125056
300.019085345374
300.019139225793
300.019258885414
300.019527054443
300.020130435171
300.021459390614
300.024201069185
300.029613740363
300.012069930219
300.009744891791
300.008587572326
300.008024836368
300.007769034018
300.0076560525
300.007606301845
300.00758421046
300.007574367027
300.00757002199
300.007568146077
300.007567363554
300.007567052136
300.007566935437
300.007566895969
300.00756688626
300.007566886286
300.007566888259
300.00756689047
300.007566892147
300.007566893217
300.007566893864
300.007566894202
300.007566894674
300.007566895318
300.007566895712
300.007566895703
300.007566895495
300.007566895022
300.007566894071
300.007566892402
300.007566890005
300.007566888817
300.007566888359
300.007566889466
300.007566901472
300.007566941475
300.007567054497
300.007567357067
300.007568120543
300.007569960555
300.007574237939
300.007583929846
300.007605641956
300.007654521536
300.007766241658
300.008023631201
300.008606086546
300.009846485167
300.012410322811
300.004805160777
300.003781465481
300.003289555975
300.003056233434
300.002952407088
300.002907445751
300.00288800178
300.002879486853
300.002875722601
300.002874064689
300.002873347634
300.002873047394
300.002872927481
300.002872882549
300.002872867553
300.002872864094
300.002872864343
300.002872865324
300.002872866378
300.002872867197
300.002872867751
300.002872868104
300.00287286833
300.002872868599
300.002872868897
300.00287286908
300.002872869076
300.002872868982
300.002872868773
300.002872868344
300.002872867613
300.002872866589
300.002872865984
300.002872865675
300.002872865925
300.002872870337
300.002872885648
300.002872929267
300.002873045881
300.00287333899
300.002874042269
300.002875672149
300.002879366287
300.002887689056
300.002906658652
300.002950820675
300.003054869499
300.003296513369
300.00382698153
300.004969245914
300.001833453282
300.001406789208
300.001207903839
300.001115727009
300.00107551733
300.001058421852
300.00105115363
300.001048012946
300.001046635087
300.001046029447
300.00104576699
300.00104565667
300.001045612451
300.001045595884
300.001045590437
300.001045589262
300.001045589434
300.00104558988
300.001045590345
300.001045590714
300.001045590975
300.001045591148
300.001045591268
300.001045591399
300.001045591526
300.001045591603
300.001045591601
300.001045591561
300.001045591471
300.001045591288
300.001045590985
300.001045590569
300.001045590288
300.00104559012
300.001045590162
300.001045591721
300.001045597358
300.001045613567
300.001045656799
300.001045764948
300.001046023037
300.001046618637
300.001047967223
300.001051018875
300.001058051959
300.001074708197
300.001114793243
300.001210233661
300.001425907302
300.001907592008
300.000672580973
300.000503354034
300.000426493847
300.000391628794
300.000376699955
300.000370460464
300.000367849856
300.000366736145
300.00036625116
300.000366038387
300.000365945993
300.000365907005
300.000365891323
300.000365885448
300.000365883544
300.000365883161
300.00036588325
300.000365883437
300.000365883629
300.000365883784
300.000365883897
300.000365883974
300.000365884031
300.000365884088
300.000365884138
300.000365884168
300.000365884168
300.000365884151
300.000365884114
300.00036588404
300.000365883921
300.000365883759
300.000365883639
300.00036588356
300.000365883562
300.000365884095
300.0003658861
300.000365891921
300.000365907397
300.000365945904
300.000366037235
300.000366246905
300.000366720629
300.000367795957
300.000370298737
300.000376320879
300.000391108179
300.000427166975
300.000510929761
300.000704201727
300.000237878826
300.000173717229
300.000145211017
300.000132533865
300.000127198932
300.000125004363
300.000124099808
300.000123718608
300.0001235538
300.000123481627
300.000123450223
300.00012343692
300.00012343155
300.000123429538
300.000123428894
300.000123428772
300.000123428811
300.000123428884
300.000123428959
300.000123429019
300.000123429065
300.000123429097
300.00012342912
300.000123429143
300.000123429162
300.000123429173
300.000123429172
300.000123429166
300.000123429151
300.000123429123
300.000123429078
300.000123429019
300.000123428971
300.000123428938
300.000123428935
300.000123429113
300.000123429806
300.000123431833
300.0001234372
300.000123450475
300.000123481752
300.000123553128
300.000123713882
300.00012407949
300.000124937742
300.000127033298
300.0001322778
300.000145362599
300.00017656393
300.000250683887
300.000081322415
300.000057977852
300.000047796499
300.000043350141
300.000041508887
300.000040762554
300.00004045919
300.000040332818
300.000040278561
300.000040254843
300.000040244502
300.000040240103
300.000040238321
300.000040237652
300.000040237439
300.0000402374
300.000040237415
300.000040237441
300.000040237467
300.000040237489
300.000040237506
300.000040237518
300.000040237526
300.000040237535
300.000040237541
300.000040237545
300.000040237545
300.000040237542
300.000040237537
300.000040237527
300.000040237511
300.000040237491
300.000040237473
300.000040237461
300.000040237459
300.000040237519
300.000040237754
300.00004023844
300.000040240248
300.000040244693
300.00004025509
300.000040278661
300.000040331534
300.000040451879
300.000040736449
300.000041440647
300.00004323504
300.000047811085
300.000058996564
300.000086270072
300.000026934666
300.000018756375
300.00001524425
300.000013735546
300.000013120032
300.000012873917
300.000012775158
300.000012734463
300.000012717106
300.000012709531
300.00001270622
300.000012704806
300.000012704229
300.000012704012
300.000012703941
300.000012703927
300.000012703931
300.000012703939
300.000012703947
300.000012703954
300.000012703959
300.000012703963
300.000012703966
300.000012703968
300.00001270397
300.000012703971
300.000012703971
300.00001270397
300.000012703968
300.000012703965
300.00001270396
300.000012703954
300.000012703948
300.000012703945
300.000012703945
300.000012703966
300.000012704045
300.000012704272
300.000012704867
300.000012706316
300.00001270968
300.000012717253
300.000012734156
300.000012772617
300.000012864112
300.000013093304
300.000013687327
300.000015234199
300.000019104786
300.000028766291
300.000008661154
300.000005894317
300.000004721246
300.000004224769
300.000004024977
300.000003946085
300.0000039148
300.000003902036
300.000003896625
300.000003894266
300.000003893231
300.000003892786
300.000003892602
300.000003892531
300.000003892507
300.000003892501
300.0000038925
300.000003892501
300.000003892503
300.000003892504
300.000003892505
300.000003892505
300.000003892505
300.000003892506
300.000003892506
300.000003892506
300.000003892506
300.000003892506
300.000003892505
300.000003892505
300.000003892504
300.000003892502
300.000003892501
300.000003892501
300.000003892503
300.000003892511
300.000003892538
300.000003892613
300.000003892806
300.000003893268
300.000003894331
300.000003896705
300.000003901971
300.000003913935
300.000003942532
300.000004014959
300.000004205706
300.000004712408
300.000006008534
300.000009313159
300.000002709289
300.000001802994
300.000001422803
300.000001264019
300.000001200915
300.000001176281
300.000001166615
300.000001162706
300.000001161056
300.000001160336
300.000001160018
300.000001159878
300.000001159819
300.000001159795
300.000001159785
300.000001159781
300.000001159779
300.000001159777
300.000001159776
300.000001159776
300.000001159775
300.000001159774
300.000001159774
300.000001159773
300.000001159773
300.000001159773
300.000001159773
300.000001159773
300.000001159773
300.000001159773
300.000001159773
300.000001159773
300.000001159774
300.000001159775
300.000001159777
300.000001159782
300.000001159792
300.000001159818
300.000001159881
300.000001160027
300.000001160357
300.000001161085
300.000001162689
300.000001166321
300.00000117503
300.000001197302
300.000001256845
300.000001418028
300.000001838968
300.000002933159
300.000000826032
300.000000537963
300.000000418189
300.00000036875
300.000000349321
300.000000341812
300.000000338893
300.000000337719
300.000000337224
300.000000337007
300.000000336908
300.000000336863
300.000000336842
300.000000336832
300.000000336827
300.000000336823
300.000000336821
300.000000336818
300.000000336817
300.000000336815
300.000000336814
300.000000336813
300.000000336812
300.000000336811
300.000000336811
300.00000033681
300.00000033681
300.00000033681
300.000000336811
300.000000336811
300.000000336812
300.000000336813
300.000000336814
300.000000336816
300.000000336818
300.000000336821
300.000000336826
300.000000336837
300.000000336858
300.000000336906
300.000000337008
300.000000337229
300.00000033771
300.000000338789
300.00000034138
300.000000348059
300.000000366162
300.000000416043
300.000000548869
300.000000900376
300.000000246047
300.00000015703
300.000000120313
300.000000105311
300.00000009947
300.000000097232
300.000000096366
300.000000096019
300.00000009587
300.000000095803
300.00000009577
300.000000095753
300.000000095744
300.000000095738
300.000000095734
300.000000095731
300.000000095728
300.000000095725
300.000000095723
300.000000095722
300.00000009572
300.000000095719
300.000000095718
300.000000095717
300.000000095716
300.000000095716
300.000000095716
300.000000095716
300.000000095717
300.000000095717
300.000000095718
300.000000095719
300.000000095721
300.000000095722
300.000000095725
300.000000095727
300.000000095731
300.000000095737
300.000000095746
300.000000095763
300.000000095797
300.000000095865
300.000000096008
300.000000096325
300.000000097081
300.000000099039
300.00000010441
300.000000119445
300.000000160215
300.000000269981
300.000000071899
300.000000045125
300.000000034181
300.000000029746
300.00000002803
300.000000027375
300.000000027121
300.000000027017
300.00000002697
300.000000026947
300.000000026934
300.000000026925
300.000000026919
300.000000026915
300.000000026911
300.000000026908
300.000000026905
300.000000026902
300.0000000269
300.000000026898
300.000000026897
300.000000026895
300.000000026894
300.000000026893
300.000000026893
300.000000026892
300.000000026892
300.000000026893
300.000000026893
300.000000026894
300.000000026894
300.000000026896
300.000000026897
300.000000026899
300.000000026901
300.000000026904
300.000000026907
300.000000026911
300.000000026917
300.000000026925
300.000000026938
300.000000026961
300.000000027006
300.0000000271
300.000000027319
300.000000027883
300.00000002944
300.000000033854
300.00000004602
300.000000079382
300.000000020837
300.000000013004
300.000000009854
300.000000008585
300.000000008092
300.000000007902
300.000000007826
300.000000007793
300.000000007775
300.000000007765
300.000000007757
300.000000007751
300.000000007746
300.000000007742
300.000000007738
300.000000007735
300.000000007732
300.000000007729
300.000000007727
300.000000007725
300.000000007724
300.000000007722
300.000000007721
300.00000000772
300.00000000772
300.000000007719
300.000000007719
300.000000007719
300.00000000772
300.000000007721
300.000000007721
300.000000007723
300.000000007724
300.000000007726
300.000000007728
300.000000007731
300.000000007734
300.000000007738
300.000000007742
300.000000007748
300.000000007755
300.000000007765
300.000000007782
300.000000007812
300.000000007877
300.000000008039
300.000000008481
300.000000009737
300.000000013244
300.00000002311
300.000000006196
300.000000003983
300.000000003134
300.000000002791
300.000000002653
300.000000002597
300.000000002572
300.000000002559
300.000000002549
300.000000002542
300.000000002536
300.000000002531
300.000000002526
300.000000002522
300.000000002518
300.000000002515
300.000000002512
300.00000000251
300.000000002507
300.000000002506
300.000000002504
300.000000002503
300.000000002502
300.000000002501
300.0000000025
300.0000000025
300.0000000025
300.0000000025
300.0000000025
300.000000002501
300.000000002502
300.000000002503
300.000000002505
300.000000002507
300.000000002509
300.000000002512
300.000000002515
300.000000002518
300.000000002522
300.000000002527
300.000000002532
300.000000002539
300.000000002547
300.00000000256
300.000000002582
300.00000000263
300.000000002754
300.000000003092
300.000000004042
300.000000006866
300.000000002086
300.000000001501
300.000000001316
300.000000001238
300.000000001201
300.000000001183
300.000000001172
300.000000001164
300.000000001157
300.000000001151
300.000000001146
300.000000001141
300.000000001136
300.000000001132
300.000000001128
300.000000001125
300.000000001122
300.000000001119
300.000000001117
300.000000001115
300.000000001114
300.000000001112
300.000000001111
300.00000000111
300.00000000111
300.000000001109
300.000000001109
300.00000000111
300.00000000111
300.000000001111
300.000000001112
300.000000001113
300.000000001114
300.000000001116
300.000000001119
300.000000001121
300.000000001124
300.000000001128
300.000000001132
300.000000001136
300.000000001141
300.000000001147
300.000000001153
300.00000000116
300.000000001171
300.000000001188
300.000000001222
300.0000000013
300.000000001512
300.000000002275
300.000000000955
300.000000000831
300.000000000834
300.00000000083
300.000000000821
300.000000000814
300.000000000807
300.0000000008
300.000000000794
300.000000000788
300.000000000783
300.000000000778
300.000000000773
300.000000000769
300.000000000765
300.000000000762
300.000000000759
300.000000000757
300.000000000754
300.000000000752
300.000000000751
300.000000000749
300.000000000748
300.000000000748
300.000000000747
300.000000000747
300.000000000747
300.000000000747
300.000000000747
300.000000000748
300.000000000749
300.00000000075
300.000000000752
300.000000000754
300.000000000756
300.000000000758
300.000000000762
300.000000000765
300.000000000769
300.000000000773
300.000000000778
300.000000000783
300.000000000789
300.000000000795
300.000000000802
300.000000000811
300.000000000821
300.000000000827
300.000000000831
300.000000001003
300.00000000065
300.000000000655
300.000000000708
300.000000000725
300.000000000724
300.000000000719
300.000000000713
300.000000000707
300.000000000701
300.000000000695
300.00000000069
300.000000000685
300.00000000068
300.000000000676
300.000000000672
300.000000000669
300.000000000666
300.000000000664
300.000000000661
300.00000000066
300.000000000658
300.000000000657
300.000000000656
300.000000000655
300.000000000654
300.000000000654
300.000000000654
300.000000000654
300.000000000654
300.000000000655
300.000000000656
300.000000000657
300.000000000659
300.000000000661
300.000000000663
300.000000000666
300.000000000669
300.000000000672
300.000000000676
300.00000000068
300.000000000685
300.00000000069
300.000000000696
300.000000000702
300.000000000708
300.000000000715
300.000000000719
300.000000000705
300.000000000651
300.000000000659
300.000000000571
300.000000000609
300.000000000677
300.000000000699
300.0000000007
300.000000000695
300.00000000069
300.000000000683
300.000000000677
300.000000000671
300.000000000666
300.000000000661
300.000000000656
300.000000000652
300.000000000649
300.000000000645
300.000000000643
300.00000000064
300.000000000638
300.000000000636
300.000000000634
300.000000000633
300.000000000632
300.000000000631
300.000000000631
300.00000000063
300.00000000063
300.000000000631
300.000000000631
300.000000000632
300.000000000633
300.000000000634
300.000000000635
300.000000000637
300.000000000639
300.000000000642
300.000000000645
300.000000000649
300.000000000653
300.000000000657
300.000000000662
300.000000000667
300.000000000673
300.000000000678
300.000000000685
300.000000000691
300.000000000693
300.000000000675
300.000000000605
300.000000000568
300.000000000551
300.000000000599
300.00000000067
300.000000000693
300.000000000694
300.00000000069
300.000000000684
300.000000000677
300.000000000671
300.000000000665
300.00000000066
300.000000000655
300.00000000065
300.000000000646
300.000000000643
300.000000000639
300.000000000636
300.000000000634
300.000000000632
300.00000000063
300.000000000628
300.000000000627
300.000000000626
300.000000000625
300.000000000625
300.000000000624
300.000000000624
300.000000000625
300.000000000625
300.000000000626
300.000000000627
300.000000000628
300.000000000629
300.000000000631
300.000000000633
300.000000000636
300.000000000639
300.000000000643
300.000000000646
300.000000000651
300.000000000656
300.000000000661
300.000000000667
300.000000000673
300.000000000679
300.000000000685
300.000000000688
300.000000000668
300.000000000595
300.000000000545
300.000000000547
300.000000000598
300.00000000067
300.000000000692
300.000000000693
300.000000000688
300.000000000682
300.000000000675
300.000000000669
300.000000000663
300.000000000658
300.000000000653
300.000000000648
300.000000000644
300.00000000064
300.000000000637
300.000000000634
300.000000000632
300.00000000063
300.000000000628
300.000000000627
300.000000000625
300.000000000624
300.000000000624
300.000000000623
300.000000000623
300.000000000623
300.000000000623
300.000000000623
300.000000000624
300.000000000625
300.000000000626
300.000000000627
300.000000000629
300.000000000632
300.000000000634
300.000000000637
300.000000000641
300.000000000644
300.000000000649
300.000000000654
300.000000000659
300.000000000665
300.000000000671
300.000000000678
300.000000000684
300.000000000687
300.000000000668
300.000000000594
300.000000000541
300.000000000548
300.0000000006
300.000000000671
300.000000000693
300.000000000693
300.000000000688
300.000000000681
300.000000000674
300.000000000668
300.000000000662
300.000000000656
300.000000000651
300.000000000647
300.000000000643
300.000000000639
300.000000000636
300.000000000633
300.000000000631
300.000000000629
300.000000000627
300.000000000626
300.000000000624
300.000000000623
300.000000000623
300.000000000622
300.000000000622
300.000000000622
300.000000000622
300.000000000622
300.000000000623
300.000000000624
300.000000000625
300.000000000627
300.000000000628
300.000000000631
300.000000000633
300.000000000636
300.000000000639
300.000000000643
300.000000000648
300.000000000653
300.000000000658
300.000000000664
300.000000000671
300.000000000678
300.000000000684
300.000000000688
300.000000000669
300.000000000596
300.000000000542
300.000000000551
300.000000000603
300.000000000673
300.000000000694
300.000000000693
300.000000000687
300.00000000068
300.000000000673
300.000000000667
300.00000000066
300.000000000655
300.00000000065
300.000000000646
300.000000000642
300.000000000638
300.000000000635
300.000000000632
300.00000000063
300.000000000628
300.000000000626
300.000000000625
300.000000000624
300.000000000623
300.000000000622
300.000000000621
300.000000000621
300.000000000621
300.000000000621
300.000000000622
300.000000000622
300.000000000623
300.000000000624
300.000000000626
300.000000000628
300.00000000063
300.000000000632
300.000000000635
300.000000000639
300.000000000642
300.000000000647
300.000000000652
300.000000000657
300.000000000664
300.00000000067
300.000000000678
300.000000000685
300.000000000689
300.000000000672
300.000000000599
300.000000000545
300.000000000555
300.000000000606
300.000000000675
300.000000000695
300.000000000693
300.000000000687
300.00000000068
300.000000000672
300.000000000665
300.000000000659
300.000000000653
300.000000000648
300.000000000644
300.00000000064
300.000000000637
300.000000000634
300.000000000631
300.000000000629
300.000000000627
300.000000000625
300.000000000624
300.000000000623
300.000000000622
300.000000000621
300.000000000621
300.00000000062
300.00000000062
300.00000000062
300.000000000621
300.000000000621
300.000000000622
300.000000000623
300.000000000625
300.000000000627
300.000000000629
300.000000000631
300.000000000634
300.000000000637
300.000000000641
300.000000000646
300.000000000651
300.000000000656
300.000000000663
300.00000000067
300.000000000677
300.000000000686
300.000000000691
300.000000000674
300.000000000603
300.000000000549
300.000000000559
300.00000000061
300.000000000678
300.000000000697
300.000000000694
300.000000000686
300.000000000678
300.000000000671
300.000000000664
300.000000000657
300.000000000652
300.000000000647
300.000000000643
300.000000000639
300.000000000635
300.000000000632
300.00000000063
300.000000000628
300.000000000626
300.000000000624
300.000000000623
300.000000000622
300.000000000621
300.00000000062
300.00000000062
300.000000000619
300.000000000619
300.000000000619
300.00000000062
300.00000000062
300.000000000621
300.000000000622
300.000000000624
300.000000000626
300.000000000627
300.00000000063
300.000000000633
300.000000000636
300.00000000064
300.000000000644
300.000000000649
300.000000000655
300.000000000662
300.000000000669
300.000000000677
300.000000000686
300.000000000693
300.000000000678
300.000000000608
300.000000000553
300.000000000564
300.000000000616
300.000000000681
300.000000000698
300.000000000694
300.000000000686
300.000000000677
300.000000000669
300.000000000662
300.000000000656
300.00000000065
300.000000000645
300.000000000641
300.000000000637
300.000000000634
300.000000000631
300.000000000628
300.000000000626
300.000000000624
300.000000000623
300.000000000622
300.00000000062
300.00000000062
300.000000000619
300.000000000619
300.000000000618
300.000000000618
300.000000000618
300.000000000619
300.000000000619
300.00000000062
300.000000000621
300.000000000623
300.000000000624
300.000000000626
300.000000000629
300.000000000631