/*--------------------------------*- C++ -*----------------------------------*\
  =========                 |
  \\      /  F ield         | OpenFOAM: The Open Source CFD Toolbox
   \\    /   O peration     | Website:  https://openfoam.org
    \\  /    A nd           | Version:  10
     \\/     M anipulation  |
\*---------------------------------------------------------------------------*/
FoamFile
{
    format      ascii;
    class       volVectorField;
    location    "5.6";
    object      U;
}
// * * * * * * * * * * * * * * * * * * * * * * * * * * * * * * * * * * * * * //

dimensions      [0 1 -1 0 0 0 0];

internalField   nonuniform List<vector> 
2500
(
(-1.54146605794602e-06 -3.50895546233784e-06 6.43016826786562e-25)
(-3.66341774642643e-06 -4.63214460017542e-06 5.0053828168299e-24)
(-3.38294796400029e-06 -4.9250748970911e-06 8.78861244668806e-25)
(-2.57657992930639e-06 -5.01804305196692e-06 4.96048229950368e-25)
(-1.70331497389413e-06 -5.00091585009626e-06 6.23560296377319e-25)
(-1.10686606412768e-06 -4.96558075866914e-06 -4.53803052940981e-25)
(-7.09487012371346e-07 -4.93253892384137e-06 2.45850800426955e-26)
(-4.62988663814823e-07 -4.90901244904306e-06 1.42798662310973e-26)
(-3.08171199327578e-07 -4.89372625917594e-06 -1.60799924571418e-25)
(-2.0926037088283e-07 -4.88445827413584e-06 5.9875347534795e-24)
(-1.44415272807855e-07 -4.8792028247593e-06 2.75590455778767e-24)
(-1.00111280951577e-07 -4.87631406152126e-06 7.67769127108365e-24)
(-6.87005530570599e-08 -4.87476454602841e-06 6.54892937183378e-24)
(-4.55979533541288e-08 -4.87394022036012e-06 2.1480397703808e-24)
(-2.80652227378669e-08 -4.87348356852172e-06 6.52304109658568e-24)
(-1.44351107310393e-08 -4.87322504336889e-06 1.71327599146471e-24)
(-3.64928294636095e-09 -4.87307953892079e-06 7.32624624971149e-24)
(4.99589355764861e-09 -4.8729880443288e-06 6.88291641281642e-24)
(1.19984870737987e-08 -4.87294597655567e-06 1.62055482118405e-24)
(1.77149614878131e-08 -4.87292147778664e-06 5.84149434809408e-24)
(2.24255147815223e-08 -4.8729171758528e-06 6.9599664085355e-25)
(2.63505180827791e-08 -4.8729245057364e-06 -5.32928727144521e-26)
(2.96746942974515e-08 -4.87293938292682e-06 6.338976305473e-24)
(3.25540170074997e-08 -4.87296228682114e-06 7.78357369579985e-25)
(3.51221330594506e-08 -4.87298921712415e-06 1.09483789112238e-25)
(3.75188814057336e-08 -4.87301648098247e-06 5.84241520428796e-24)
(3.98701897818825e-08 -4.87305519787467e-06 2.43118686887192e-25)
(4.22971674375711e-08 -4.87309601219068e-06 1.33201426738584e-24)
(4.49376749298839e-08 -4.87314773145476e-06 6.02672892643237e-24)
(4.79399103463233e-08 -4.87319523538253e-06 -2.18148483700768e-25)
(5.14770645422874e-08 -4.8732540124078e-06 4.29684622273891e-25)
(5.57578098790621e-08 -4.87333146558605e-06 -9.27565955694429e-25)
(6.10368393411269e-08 -4.87342996614211e-06 9.18435764439562e-25)
(6.76584001995463e-08 -4.87355606977341e-06 1.00850065682709e-24)
(7.61065469765663e-08 -4.87374862619822e-06 -1.42681101514622e-25)
(8.70778200185372e-08 -4.87404969569866e-06 5.44302687905285e-24)
(1.01636050699996e-07 -4.87454679603023e-06 -4.72385300812764e-24)
(1.21448914469765e-07 -4.87543129517596e-06 -7.32279636412669e-25)
(1.49240719256581e-07 -4.87704225090242e-06 -6.28668859202534e-27)
(1.89626940378499e-07 -4.87999062659087e-06 -3.6142520029809e-24)
(2.50238515500155e-07 -4.88528870880594e-06 -8.10994174752712e-24)
(3.44641410266364e-07 -4.89452665615871e-06 -7.96655897811629e-24)
(4.94532092686473e-07 -4.90965968779602e-06 -4.20330603801946e-24)
(7.36037334671137e-07 -4.93295796282699e-06 -8.11473164375246e-24)
(1.12876221850089e-06 -4.96591241514265e-06 -8.20118736908033e-24)
(1.72416033689468e-06 -5.00200955368608e-06 -4.7034509714103e-24)
(2.60523888455046e-06 -5.02102695928415e-06 -6.89931994796921e-24)
(3.4348562900009e-06 -4.92789350115835e-06 -8.0841571801957e-24)
(3.71997383005739e-06 -4.62453829756308e-06 -3.99146136598088e-24)
(1.55832193446723e-06 -3.49963698166275e-06 -5.27683078185579e-24)
(-1.687801141433e-06 -4.61152199627817e-06 5.33241770418975e-25)
(-5.95487119655939e-06 -7.04538065788827e-06 3.44886363731664e-25)
(-5.8145754147161e-06 -8.41671824340771e-06 9.93128241869201e-25)
(-4.63939381422497e-06 -8.77600501049717e-06 7.4298932385863e-25)
(-3.20858761044991e-06 -8.64065594609783e-06 -8.73937729303798e-26)
(-2.18008566454864e-06 -8.40389066863142e-06 -2.62539674961161e-24)
(-1.47000029778273e-06 -8.21036107975844e-06 -2.58479038711074e-25)
(-1.01148485025593e-06 -8.07821839502325e-06 -3.11164997250492e-25)
(-7.11838966166661e-07 -7.99538241921094e-06 -2.66554173107816e-24)
(-5.11014793213098e-07 -7.94519968598069e-06 8.76249439059323e-25)
(-3.72049740098439e-07 -7.91539778506199e-06 5.81485533243621e-24)
(-2.71707820439252e-07 -7.89762219177649e-06 5.64690082103651e-24)
(-1.96603534691653e-07 -7.88678794148544e-06 1.99050493094298e-24)
(-1.38555244541517e-07 -7.87993447806361e-06 3.80725383339789e-24)
(-9.25153333142775e-08 -7.87538303073153e-06 1.64846786568263e-24)
(-5.52935626520022e-08 -7.87220855042189e-06 1.88648556683889e-24)
(-2.47422458896269e-08 -7.86989415871194e-06 4.65231699812963e-24)
(6.16013158025303e-10 -7.86815680803541e-06 2.60843260735447e-24)
(2.18684276990044e-08 -7.86683249456278e-06 1.46924985587903e-24)
(3.98346845012362e-08 -7.86579981679092e-06 8.15461059892189e-25)
(5.51616180836269e-08 -7.86500281899674e-06 1.5058186532669e-25)
(6.83871746052197e-08 -7.86439421877931e-06 -2.49439809091786e-24)
(7.99618145953765e-08 -7.86394717909937e-06 3.20532026457977e-24)
(9.02844415765341e-08 -7.86363093415608e-06 7.04971483458767e-25)
(9.97087391757109e-08 -7.86344633876894e-06 -1.64905929696807e-24)
(1.08578833733528e-07 -7.86337617845777e-06 2.94424011227852e-24)
(1.17234122952472e-07 -7.86342628853275e-06 -1.36591532510211e-24)
(1.26003092813669e-07 -7.86359686881318e-06 3.47307975596587e-24)
(1.35249477487096e-07 -7.86390550459311e-06 2.99729562612642e-24)
(1.45356704922099e-07 -7.86435487132222e-06 -2.25508477725488e-24)
(1.56751372195674e-07 -7.86498594281081e-06 2.01513932560018e-24)
(1.69964057147224e-07 -7.86584398060067e-06 -2.99151896218203e-24)
(1.85621782526306e-07 -7.86698665304957e-06 3.48825394900866e-24)
(2.04514370190953e-07 -7.86851190645226e-06 3.47928738607147e-24)
(2.27717527979593e-07 -7.87061450274426e-06 -2.3408053220155e-24)
(2.56722685828531e-07 -7.87359217679241e-06 1.97304754952802e-24)
(2.93669246876156e-07 -7.8779514376813e-06 -3.34196580644142e-24)
(3.41769976239552e-07 -7.88463746875534e-06 -5.79515828624767e-25)
(4.06085128728286e-07 -7.89533650600659e-06 9.38747768521177e-25)
(4.94848114392812e-07 -7.91301320957185e-06 -8.35976151610144e-24)
(6.21442144666101e-07 -7.9427260681088e-06 -7.08085639007648e-24)
(8.09257571047217e-07 -7.99274676864719e-06 -6.76859983488716e-24)
(1.09506840051703e-06 -8.07533439968935e-06 -9.57322673586694e-24)
(1.53965038957084e-06 -8.20744272853097e-06 -6.97189328848727e-24)
(2.23648826307322e-06 -8.40233222149584e-06 -7.23663605945613e-24)
(3.25842265113703e-06 -8.64467198298993e-06 -1.05045163366903e-23)
(4.69936311557306e-06 -8.7908064844826e-06 -7.37210007449495e-24)
(5.91574763623164e-06 -8.42994842092479e-06 -7.00188992555022e-24)
(6.07152004634713e-06 -7.01669429818604e-06 -9.1421219054483e-24)
(1.72717037034146e-06 -4.55850436729749e-06 -4.1660522399647e-24)
(-5.3902448013476e-07 1.32633341780864e-08 -4.18919085391084e-26)
(-5.01522486644356e-06 -2.20647992454848e-06 -5.91806882249857e-24)
(-5.21873360423504e-06 -4.59228227456554e-06 3.989791359575e-25)
(-4.46669546146164e-06 -5.23425723794339e-06 1.64887080397816e-25)
(-3.29330792199102e-06 -5.0160064367276e-06 -5.1766746315661e-24)
(-2.38741831440743e-06 -4.60150962808267e-06 -6.38057415352372e-24)
(-1.71819978962509e-06 -4.26307356512987e-06 -6.04749433521155e-25)
(-1.25788278172799e-06 -4.03261799150112e-06 -6.44427908785887e-25)
(-9.37921616032192e-07 -3.8879958778801e-06 -6.81409847073536e-24)
(-7.09759086507191e-07 -3.79920498308387e-06 -5.01219329008747e-24)
(-5.42500231629217e-07 -3.74475070623677e-06 8.68297363047101e-24)
(-4.15506240460814e-07 -3.71066264057304e-06 3.32325423693316e-24)
(-3.16379352447645e-07 -3.68861959376592e-06 -3.44084862395689e-24)
(-2.37135012556906e-07 -3.6737649614738e-06 5.78100187803495e-24)
(-1.72543491952635e-07 -3.66332121123999e-06 -4.6540190277598e-24)
(-1.19098276188862e-07 -3.65567234650177e-06 9.28337534695603e-25)
(-7.43365479050666e-08 -3.64988647994472e-06 1.79344108648964e-24)
(-3.64688441348388e-08 -3.6454129527498e-06 -2.8180767324074e-24)
(-4.13398058933426e-09 -3.64188997383533e-06 2.82280056401774e-25)
(2.37182177822253e-08 -3.63910645677856e-06 -4.89333357164556e-24)
(4.79450620205129e-08 -3.63690619364844e-06 -8.61283359864409e-25)
(6.92620299077652e-08 -3.63518680852468e-06 -6.74013036403158e-24)
(8.82904939735267e-08 -3.63388976993836e-06 6.42478202544732e-25)
(1.05578687339036e-07 -3.63295021403743e-06 1.63649442920872e-25)
(1.21623482312513e-07 -3.63235801132576e-06 -5.91639093135822e-24)
(1.36916805840007e-07 -3.63208397874033e-06 1.42676640342629e-25)
(1.51928723373526e-07 -3.6321340171871e-06 -4.61726078984915e-24)
(1.67127214021184e-07 -3.63251897674682e-06 6.70017001053101e-24)
(1.83020380164049e-07 -3.63325317167106e-06 9.49703487977011e-25)
(2.00149018714658e-07 -3.63440244065533e-06 -5.34360020762195e-24)
(2.19112754473746e-07 -3.63601722544818e-06 5.42541374029807e-24)
(2.40624610676626e-07 -3.63819586899568e-06 -5.91303247674584e-24)
(2.65526606520757e-07 -3.64107618327873e-06 6.9750002647348e-24)
(2.94855175365977e-07 -3.64489871850721e-06 6.60945046254992e-24)
(3.29954728056922e-07 -3.65001986651154e-06 -6.03697191477694e-24)
(3.72628495602468e-07 -3.65700701586144e-06 -1.96275411439999e-25)
(4.25355282658921e-07 -3.6668048241083e-06 -1.08991568035702e-24)
(4.91644211469489e-07 -3.68103178580291e-06 9.96227487010978e-26)
(5.767281239307e-07 -3.70249895157235e-06 3.86023670670349e-24)
(6.88659282859645e-07 -3.73609919182747e-06 -9.47144912768637e-24)
(8.39825990346077e-07 -3.79017204599324e-06 -4.50352256639858e-24)
(1.0510779572952e-06 -3.87871272404473e-06 -4.26123034806567e-24)
(1.35317573316531e-06 -4.02332789434656e-06 -1.19562059988252e-23)
(1.79560099110833e-06 -4.254642321668e-06 -4.55469798421837e-24)
(2.44765776478718e-06 -4.59683827700844e-06 -4.85686417286375e-24)
(3.34323632526936e-06 -5.02276991537326e-06 -1.2141814523376e-23)
(4.52350029285226e-06 -5.26195495229736e-06 -4.61783192004001e-24)
(5.31695453940293e-06 -4.62017819709182e-06 -4.43435537170959e-24)
(5.14888735421457e-06 -2.1662819965393e-06 -1.1467417781556e-23)
(5.98659701613983e-07 1.15071166705287e-07 -2.46518435027821e-24)
(1.28595443436405e-07 4.11144293565418e-06 1.44805419163366e-25)
(-2.910692867803e-06 2.65253841192205e-06 -5.0248622719903e-24)
(-3.40501498527407e-06 -6.85272342487913e-07 6.00161506921402e-25)
(-3.2870586926139e-06 -1.7539289796709e-06 2.95812939244205e-25)
(-2.68478401574193e-06 -1.64882544572751e-06 -2.17796656236134e-24)
(-2.13476068506484e-06 -1.20824850159812e-06 -2.73899647685846e-24)
(-1.66613017016974e-06 -8.18619846908813e-07 -7.38358092811632e-26)
(-1.3055662162683e-06 -5.41207198953599e-07 -7.26836294221555e-26)
(-1.03018152261047e-06 -3.60548392843997e-07 -2.86079418693839e-24)
(-8.17423431191116e-07 -2.45120219228684e-07 -4.68142217878166e-24)
(-6.51331704301243e-07 -1.70986810023857e-07 4.40619568524705e-24)
(-5.19058731488557e-07 -1.22257801886473e-07 5.9242967768558e-25)
(-4.12115053464379e-07 -8.91916045330044e-08 -2.69588635289956e-24)
(-3.24371151515763e-07 -6.5947407170323e-08 2.34338778193944e-24)
(-2.5143065497061e-07 -4.90113814947614e-08 -4.37131622330024e-24)
(-1.9012174113363e-07 -3.62790597994859e-08 6.99338868424962e-25)
(-1.38068612920575e-07 -2.64615714501127e-08 -5.53886166101649e-25)
(-9.34617464599035e-08 -1.87476300620847e-08 -2.0140502342363e-24)
(-5.48948110516693e-08 -1.26180127595787e-08 4.77446246049421e-25)
(-2.12409993258189e-08 -7.7229131370299e-09 -3.98669457387309e-24)
(8.43954189302052e-09 -3.82941733516833e-09 -1.63286574049773e-25)
(3.49301531243776e-08 -7.74326324245631e-10 -2.61343557859895e-24)
(5.89255205745323e-08 1.55996301984746e-09 -7.90783951893967e-25)
(8.10483542355605e-08 3.24170780467319e-09 3.63004660478471e-25)
(1.01866902296651e-07 4.32295953312219e-09 -1.86640050133434e-24)
(1.21932771020586e-07 4.8280781574606e-09 -1.24798577315067e-24)
(1.41782527975755e-07 4.75209849658915e-09 -1.7836116700892e-24)
(1.61963387263575e-07 4.07645479956644e-09 2.69862219567369e-24)
(1.83039658312459e-07 2.76934131463017e-09 -1.39927066199879e-24)
(2.05627580714916e-07 7.47714053590963e-10 -2.56893807888951e-24)
(2.30411943448036e-07 -2.09102220077515e-09 1.71236226193113e-24)
(2.5817571525674e-07 -5.90660999146822e-09 -3.06742646242359e-24)
(2.89836184799112e-07 -1.09219746719759e-08 3.07212900299598e-24)
(3.2651221649714e-07 -1.74995395382705e-08 3.08462255888983e-24)
(3.69614036632465e-07 -2.61731579161217e-08 -2.70173954729422e-24)
(4.20943308026024e-07 -3.7743919310106e-08 -1.50290650685533e-24)
(4.82873232184002e-07 -5.35280642832123e-08 1.4554515363011e-24)
(5.58578905681014e-07 -7.56437169556539e-08 1.67241239935049e-25)
(6.52443183588946e-07 -1.07610274730861e-07 1.65932262462993e-24)
(7.70623084198098e-07 -1.55328882799111e-07 -4.46574077201863e-24)
(9.21551769744028e-07 -2.28593985690517e-07 -1.9593101519906e-25)
(1.1182893153992e-06 -3.43392006849673e-07 8.73448926928122e-26)
(1.37664894758854e-06 -5.23957892220679e-07 -4.93836983463795e-24)
(1.72005346803296e-06 -8.02825572018933e-07 -3.7527268531242e-25)
(2.17176228323514e-06 -1.19850545763284e-06 -5.70999116119504e-25)
(2.71008810081952e-06 -1.65660246935165e-06 -5.9269143859131e-24)
(3.31444287354564e-06 -1.79394030842981e-06 6.05794555167807e-25)
(3.46404199092347e-06 -7.33401951633709e-07 -2.58376591423637e-25)
(3.01688072587623e-06 2.69069056664415e-06 -5.47019467713977e-24)
(-6.84993000799283e-08 4.23262385934932e-06 9.88018020959504e-25)
(3.20301844202391e-07 6.56890873626331e-06 7.7504905243994e-25)
(-1.00296294405973e-06 5.7081965971614e-06 2.04362562763936e-25)
(-1.66467965045004e-06 1.75327018652458e-06 1.26589185201327e-24)
(-2.03526332708384e-06 2.54862309025337e-07 5.71908721792594e-25)
(-1.95409388764243e-06 1.38669223916807e-07 3.03731663399564e-25)
(-1.74832047008833e-06 4.97474844524928e-07 -1.78703583695978e-25)
(-1.49077545542868e-06 8.68976742577059e-07 4.58676442461329e-25)
(-1.24720543582978e-06 1.15439105276244e-06 4.98355384269237e-25)
(-1.03467179480028e-06 1.35106040396711e-06 -8.81415540342716e-26)
(-8.54155944055349e-07 1.48319381076176e-06 -2.97966666894074e-25)
(-7.03873471331945e-07 1.57218177602162e-06 2.23391576382482e-24)
(-5.78707554965296e-07 1.63324482668757e-06 1.41337602561875e-24)
(-4.74326699619576e-07 1.67626003210683e-06 1.48399766342549e-25)
(-3.86792345520079e-07 1.70743809552467e-06 1.28289456711279e-24)
(-3.12843744548489e-07 1.7306994073525e-06 -2.0227099621044e-25)
(-2.49897043010846e-07 1.7484897545773e-06 1.254114621908e-24)
(-1.95878503653565e-07 1.76238182629964e-06 1.12828939359278e-24)
(-1.4913589084633e-07 1.77339630684649e-06 8.14459703048522e-25)
(-1.08327975954011e-07 1.7821987260574e-06 1.42385151272765e-24)
(-7.23606892394332e-08 1.7892585285219e-06 5.34263345760321e-26)
(-4.03091149534034e-08 1.79489055974683e-06 9.35032795774573e-25)
(-1.13789784295877e-08 1.79930531957382e-06 1.15075341672301e-25)
(1.51270546728226e-08 1.80267642345044e-06 7.00937088831328e-25)
(3.98446239241215e-08 1.8050956034743e-06 8.91321704696034e-25)
(6.33632078029616e-08 1.80663087369323e-06 3.45482163037496e-25)
(8.62463977989354e-08 1.80730980159452e-06 5.60478396658943e-25)
(1.09044415225932e-07 1.80714349282428e-06 1.20821240023241e-25)
(1.32319906064304e-07 1.80609816496651e-06 8.11193094459353e-25)
(1.56656206740776e-07 1.804112284267e-06 9.84361795110625e-26)
(1.82679830807573e-07 1.80110021553099e-06 -5.90380771164567e-25)
(2.11083696906145e-07 1.79689547227993e-06 9.15153008593935e-26)
(2.42651788085806e-07 1.79128734831909e-06 -1.36845300315977e-24)
(2.7829592980821e-07 1.78396734433469e-06 5.36150177667923e-25)
(3.19107409361414e-07 1.77447729825452e-06 7.27020633361512e-25)
(3.66417180339723e-07 1.76211820501789e-06 -6.0242026655495e-25)
(4.21860599913985e-07 1.74588046061849e-06 -5.87256857361506e-26)
(4.87498430122282e-07 1.72417344420383e-06 1.49216652085366e-25)
(5.6590497352939e-07 1.69454916797335e-06 -1.94732616223954e-25)
(6.6029833116154e-07 1.65307903475155e-06 4.06959045078258e-25)
(7.74608251002119e-07 1.59349177918989e-06 -2.0933497325041e-24)
(9.13064986376148e-07 1.50586514168879e-06 -5.75700237238999e-25)
(1.08090801850997e-06 1.37486073220725e-06 -3.76279108315795e-25)
(1.2796469310182e-06 1.17866714913564e-06 -1.87279160517929e-24)
(1.50889825519447e-06 8.91785241919516e-07 -5.32748598459691e-25)
(1.75138796809703e-06 5.12916358937781e-07 -6.14573807794147e-25)
(1.94500893394235e-06 1.32007501120489e-07 -2.6897085308714e-24)
(2.02337804520425e-06 2.065037994036e-07 -3.3450445675443e-25)
(1.67222644736709e-06 1.68683097546947e-06 -2.90012682839508e-25)
(1.05592943732593e-06 5.73901745993616e-06 -2.72366634919762e-24)
(-2.80133177057549e-07 6.69328354102942e-06 2.21851176248866e-25)
(3.00832029260521e-07 7.41842996783304e-06 1.06256458091488e-24)
(2.02424005923168e-07 6.8699563096076e-06 2.48075435117872e-24)
(-5.07988194116109e-07 2.7322136201927e-06 1.52107234525077e-24)
(-1.11772513345268e-06 9.47769465836102e-07 6.34312562728051e-25)
(-1.36461384504479e-06 6.30266648530752e-07 7.34012873990158e-25)
(-1.39215109451989e-06 8.80913549237185e-07 1.00828535334156e-24)
(-1.29259225272315e-06 1.20808606580551e-06 6.50480249977705e-25)
(-1.14515943155811e-06 1.48227247805839e-06 7.08662033212257e-25)
(-9.90554404518725e-07 1.68266970884761e-06 1.22190662560765e-24)
(-8.44433767056881e-07 1.82392582617381e-06 1.48417463193668e-24)
(-7.14734301054835e-07 1.92317507501044e-06 1.13407662868065e-24)
(-6.02048577589929e-07 1.99381416442887e-06 1.71160843958552e-24)
(-5.05358492556736e-07 2.04510596348137e-06 1.72450994690428e-24)
(-4.22626988138242e-07 2.0832130422517e-06 8.72679443162138e-25)
(-3.51698033544585e-07 2.11217369529704e-06 1.55846787440334e-24)
(-2.90632090004205e-07 2.13463270840771e-06 1.46773039499592e-24)
(-2.3772541222763e-07 2.15233969367071e-06 1.91408346694877e-24)
(-1.91554598678693e-07 2.16646992213958e-06 2.28307145447488e-24)
(-1.50922747898663e-07 2.17781777953858e-06 1.8029350027707e-24)
(-1.14816033124024e-07 2.18693449555135e-06 1.92140579215332e-24)
(-8.23703608821713e-08 2.19420509211929e-06 1.3772700553439e-24)
(-5.28284882955661e-08 2.19990801560956e-06 1.29099835364524e-24)
(-2.55153868011691e-08 2.20423558827665e-06 1.45822366224375e-24)
(1.7984926591132e-10 2.20731372885192e-06 1.104766777532e-24)
(2.48329447992368e-08 2.20923070265004e-06 1.44519269482641e-24)
(4.89966250540021e-08 2.21001966267528e-06 1.54481553266621e-24)
(7.3206647265247e-08 2.20968884495088e-06 9.61812222189116e-25)
(9.80088957873354e-08 2.20819883868854e-06 5.4496007755956e-26)
(1.23975749296445e-07 2.20548081535953e-06 7.07876087693395e-25)
(1.51710942022451e-07 2.20141312904737e-06 4.44711277958484e-25)
(1.81879439211656e-07 2.19578985649541e-06 -4.21951597678183e-25)
(2.15228799094558e-07 2.18836327146835e-06 -3.80190921861129e-25)
(2.52611679337021e-07 2.17874222529059e-06 -6.29569819098534e-25)
(2.95028887169402e-07 2.16637604819974e-06 -4.54612329379974e-25)
(3.43668481643649e-07 2.15046028822183e-06 3.98850857457199e-25)
(3.99929567058038e-07 2.129811803742e-06 5.51932683688821e-25)
(4.65485114882032e-07 2.1026811280921e-06 -3.69594212236926e-25)
(5.42256672052144e-07 2.06643099266917e-06 -4.38393283761775e-25)
(6.32338498778544e-07 2.01699698135666e-06 -2.77626486943672e-25)
(7.3772931920238e-07 1.94819747365043e-06 1.6002289367321e-25)
(8.59295262045594e-07 1.85070429167289e-06 -7.23884037626306e-25)
(9.96475067836156e-07 1.71102239301321e-06 -5.74773604899048e-25)
(1.14090970300296e-06 1.5115870163271e-06 1.6706475534089e-25)
(1.27722049920938e-06 1.23635941048089e-06 -5.3443871229272e-25)
(1.36395234493962e-06 9.01578827207077e-07 -5.55269814388946e-25)
(1.32448614492065e-06 6.26377508510452e-07 -1.39310487585726e-26)
(1.07119063490265e-06 8.95948310985837e-07 -6.0827810668739e-25)
(4.71053330444432e-07 2.65375244602123e-06 -5.1912205394795e-25)
(-2.04162998723803e-07 6.89176091584657e-06 2.63248196779676e-25)
(-2.86717782850513e-07 7.53769227942938e-06 -5.07198369848316e-26)
(2.52048016526776e-07 7.1719514822939e-06 9.53642005398681e-25)
(7.36138316507386e-07 6.7666735973029e-06 3.16619054350112e-24)
(6.284403009006e-08 2.7643808728686e-06 1.30393975544901e-24)
(-5.83011403627277e-07 8.44722766348282e-07 4.81541538608092e-25)
(-9.7057320521941e-07 3.85572276407812e-07 5.01239540207194e-25)
(-1.11717412769472e-06 5.38097650309767e-07 9.735864766852e-25)
(-1.11409414374419e-06 8.16670472526004e-07 5.26370705808098e-25)
(-1.03358784297148e-06 1.07193698496569e-06 5.84440108753819e-25)
(-9.24577894707882e-07 1.2692748355136e-06 1.24699326437269e-24)
(-8.08822543178926e-07 1.41452034103255e-06 1.77826332734511e-24)
(-6.99392313969476e-07 1.52041434956428e-06 6.70340765203191e-25)
(-6.0037920833392e-07 1.59815069080221e-06 1.80186344658874e-24)
(-5.130481979784e-07 1.65607078912688e-06 2.12869859211082e-24)
(-4.36843208805528e-07 1.69999655664694e-06 7.0769330964994e-25)
(-3.70550955609559e-07 1.73390481167673e-06 1.90771057962784e-24)
(-3.12824726304993e-07 1.76051530638996e-06 1.24653716109294e-24)
(-2.62349908672823e-07 1.7816765078475e-06 2.04095866487128e-24)
(-2.17952127193904e-07 1.79865213213969e-06 2.48937816750159e-24)
(-1.78596540663137e-07 1.81234267760688e-06 1.54912368959718e-24)
(-1.43385804610186e-07 1.82335029649647e-06 2.29530983718253e-24)
(-1.1152566160379e-07 1.83212912268745e-06 1.19946016725274e-24)
(-8.23149984155071e-08 1.83900254853603e-06 1.28534611691559e-24)
(-5.5130198510103e-08 1.84418933463783e-06 1.78199963531849e-24)
(-2.93840293623989e-08 1.84784366338613e-06 9.30410524255715e-25)
(-4.52957697884399e-09 1.85006842752867e-06 1.3584381930895e-24)
(1.99546755327255e-08 1.85090798116367e-06 1.82235539832526e-24)
(4.45805168797745e-08 1.85035996866089e-06 9.17926945529207e-25)
(6.98732162052403e-08 1.84839460582098e-06 -3.38026983810438e-26)
(9.63755818919146e-08 1.84491556132789e-06 1.08853941753886e-24)
(1.24648804307265e-07 1.83977545762731e-06 6.14769417256396e-25)
(1.55324159686104e-07 1.832754319723e-06 -3.63237829227315e-25)
(1.89088025014149e-07 1.82354431988772e-06 -7.90206294873203e-26)
(2.26709477311837e-07 1.81170881587545e-06 -7.13670156911284e-25)
(2.69088562109238e-07 1.79662105128463e-06 -5.85904483305302e-25)
(3.17234342814028e-07 1.77739287409431e-06 5.5169595075414e-25)
(3.72291055992162e-07 1.75274295784417e-06 9.29254120056198e-25)
(4.35547385403819e-07 1.72083317925829e-06 -7.22576758996202e-25)
(5.08307115685187e-07 1.67895844269936e-06 -4.31346994615586e-25)
(5.91720095524695e-07 1.62313000250277e-06 -3.09891669719431e-25)
(6.86283045949084e-07 1.54749086576714e-06 6.67509111361973e-25)
(7.90545687123682e-07 1.44368274163246e-06 -1.02101581955499e-24)
(9.00384312763157e-07 1.30042970275018e-06 -9.39006919697578e-25)
(1.00219937879343e-06 1.10460652015173e-06 5.73355240759003e-25)
(1.07429690904582e-06 8.48997928505278e-07 -7.91543030301256e-25)
(1.0666869323385e-06 5.63206345041941e-07 -8.11707770008674e-25)
(9.09115136700294e-07 3.84981038635238e-07 5.82052025869541e-25)
(5.13581400029528e-07 7.91984204230917e-07 -9.8613969045373e-25)
(-1.27975106110705e-07 2.67804549213604e-06 -8.03879272234787e-25)
(-7.77131171760226e-07 6.77646785603286e-06 1.18912116100231e-24)
(-2.57829178099843e-07 7.27935830495931e-06 -4.0263102541162e-25)
(2.27638754034628e-07 6.453596197514e-06 6.23924981553295e-25)
(8.32974727729577e-07 6.15988762431284e-06 2.16497570287987e-24)
(2.46618537902012e-07 2.43785254457465e-06 8.46753094745466e-25)
(-3.24157668081457e-07 4.82503709028278e-07 2.76364649964616e-25)
(-7.30150072808754e-07 -6.52204359007742e-08 4.3780371674239e-26)
(-9.1741769273284e-07 7.80139737250854e-09 7.08481282318456e-25)
(-9.64512658269734e-07 2.40650310389612e-07 3.40683197756916e-25)
(-9.26761612722865e-07 4.73713474887506e-07 3.83671516159198e-25)
(-8.51381867454045e-07 6.63502068415552e-07 9.34822209076852e-25)
(-7.60559151694129e-07 8.08730335230588e-07 1.13872954665384e-24)
(-6.69182210110675e-07 9.18156151419928e-07 2.55166322682685e-25)
(-5.83152896113832e-07 1.00073979047559e-06 9.90531626864232e-25)
(-5.05173510056792e-07 1.06369597045379e-06 1.34597580481515e-24)
(-4.35771410696694e-07 1.11233265203464e-06 3.51376593902552e-25)
(-3.74488130916496e-07 1.15042708582867e-06 1.23704904640206e-24)
(-3.20501733089335e-07 1.18065286287619e-06 7.82944577736614e-25)
(-2.72860315474393e-07 1.20487846944252e-06 1.20123326904649e-24)
(-2.30627076007554e-07 1.22441836802077e-06 1.59693908009386e-24)
(-1.92944324060962e-07 1.24021882031132e-06 9.88461664809965e-25)
(-1.59028772646402e-07 1.25295222872735e-06 1.45843673522348e-24)
(-1.28163477792414e-07 1.26311215234002e-06 7.76411622340029e-25)
(-9.97164578745945e-08 1.27104299202713e-06 9.18783210858007e-25)
(-7.310514655177e-08 1.27700172352773e-06 9.64392383727815e-25)
(-4.7783486281802e-08 1.28116528644249e-06 5.87147176292996e-25)
(-2.32375175826127e-08 1.28364296816378e-06 9.64212788923658e-25)
(1.02266185541456e-09 1.28448612225474e-06 1.0572027523099e-24)
(2.54857285500405e-08 1.28369481181458e-06 6.55390417321429e-25)
(5.06429734121088e-08 1.28123968298532e-06 -1.34724774285124e-25)
(7.70000543320996e-08 1.27699994947089e-06 5.89086236061414e-25)
(1.05091582846335e-07 1.27081531647812e-06 5.05147894085138e-25)
(1.35492242930185e-07 1.26244674025386e-06 -2.90823246306948e-25)
(1.68827395069071e-07 1.25154028454146e-06 7.52067246262326e-26)
(2.05785285710656e-07 1.23762436003609e-06 -5.73789269136893e-25)
(2.4713797767835e-07 1.22002287143507e-06 -4.92194813578122e-25)
(2.93729349400643e-07 1.19778963322312e-06 4.66066128915113e-25)
(3.46459324905656e-07 1.16960753370589e-06 5.32816221170295e-25)
(4.06248157520907e-07 1.13361030735326e-06 -3.69867384860544e-25)
(4.73875476633908e-07 1.08714579124947e-06 -2.81380053154797e-25)
(5.49717494795468e-07 1.0264390098473e-06 -2.3307628893897e-25)
(6.33190648299496e-07 9.46174158904703e-07 1.04755817694843e-24)
(7.21398549491286e-07 8.39115784816445e-07 -4.04898549262152e-25)
(8.08360981407641e-07 6.96288644277184e-07 -3.95231941436677e-25)
(8.78650047855596e-07 5.08596669312039e-07 8.74434691242097e-25)
(9.10049374170737e-07 2.75990598736891e-07 -3.4981881215574e-25)
(8.54200874801449e-07 3.65305226305726e-08 -3.43108508715612e-25)
(6.57554330301873e-07 -6.2802807654739e-08 9.57806405176793e-25)
(2.43934943777646e-07 4.29374639904909e-07 -4.33278748085415e-25)
(-3.23842181654002e-07 2.3450109976711e-06 -3.22027075914099e-25)
(-8.93493485019035e-07 6.15371867588077e-06 1.73040354743907e-24)
(-2.4358052323665e-07 6.54242575338517e-06 -8.5012885716056e-26)
(2.14822377482898e-07 5.69316574099889e-06 3.78587612206649e-25)
(7.21672088846534e-07 5.53783582415489e-06 1.68913870867936e-24)
(2.41585852336587e-07 2.10674267581823e-06 5.09015374538548e-25)
(-2.1815280468191e-07 1.61496007092311e-07 1.92293348310592e-25)
(-5.84106045757255e-07 -4.40996451457481e-07 5.03377513816709e-25)
(-7.7070308115998e-07 -4.31017553703115e-07 8.03129152045488e-25)
(-8.39852278073089e-07 -2.39581423792731e-07 2.29043502261334e-25)
(-8.28482253892245e-07 -3.00557064910671e-08 2.49618326847138e-25)
(-7.77512170274863e-07 1.4908120589632e-07 8.96831711865046e-25)
(-7.06751527630688e-07 2.91162335760586e-07 9.15602900421014e-25)
(-6.30923092172041e-07 4.01531152021123e-07 -2.17754727891944e-25)
(-5.56650923366629e-07 4.86994124491958e-07 4.53123907848294e-25)
(-4.87458208165764e-07 5.53551908925259e-07 1.00159621425227e-24)
(-4.24626623261609e-07 6.05875962201095e-07 -1.36057227876711e-25)
(-3.68295597547491e-07 6.47425744753376e-07 9.60168582937562e-25)
(-3.180821653763e-07 6.80743593557824e-07 4.3343086778234e-25)
(-2.73357146646259e-07 7.07653139667737e-07 6.20949266257856e-25)
(-2.33412901046516e-07 7.29481854880245e-07 1.17727610733401e-24)
(-1.97541284737051e-07 7.47188244821855e-07 5.85420400933883e-25)
(-1.65077238575179e-07 7.61492448175134e-07 1.11704621580679e-24)
(-1.35397297390255e-07 7.72909202427546e-07 4.74025716481058e-25)
(-1.07924950362351e-07 7.81805263868766e-07 8.14386297096992e-25)
(-8.21264906678138e-08 7.88469095766294e-07 4.93917361393339e-25)
(-5.74951794594389e-08 7.93084396687371e-07 3.39132099295391e-25)
(-3.35534671357812e-08 7.95772723398237e-07 8.79960639509026e-25)
(-9.84262983974253e-09 7.9659348869817e-07 5.7790879111323e-25)
(1.41009786955888e-08 7.95555530585634e-07 5.54684214468202e-25)
(3.87358758743888e-08 7.92604855305579e-07 -4.28367300133639e-25)
(6.45331079076423e-08 7.87630820277363e-07 2.55458023298801e-25)
(9.19886879422294e-08 7.80451785015165e-07 4.67589822027345e-25)
(1.21627695475597e-07 7.70798453755624e-07 -4.66044066953954e-25)
(1.54010278259323e-07 7.58308434358882e-07 2.96334378818496e-25)
(1.89741202476174e-07 7.42469488977672e-07 -5.80120497718438e-25)
(2.29479378246938e-07 7.22581154517387e-07 -6.20751410059459e-25)
(2.73903265783024e-07 6.97676556685269e-07 5.72244186251596e-25)
(3.23684728137518e-07 6.66435071409738e-07 2.81389006041655e-25)
(3.79424523506079e-07 6.270359972547e-07 -1.57492087462975e-25)
(4.41456042236103e-07 5.76970504833249e-07 -1.7100998773907e-25)
(5.09573358894322e-07 5.12785872916542e-07 -4.40123853162964e-25)
(5.82420216549543e-07 4.29827706031563e-07 7.65778976499618e-25)
(6.562856189314e-07 3.22090291416148e-07 -1.00001225006875e-25)
(7.24474119079194e-07 1.82800135090332e-07 -9.85961344900825e-26)
(7.71749317637794e-07 6.3249653617428e-09 7.9822072801687e-25)
(7.78285450436033e-07 -2.01994532284698e-07 -9.07717037363418e-26)
(7.02137416309062e-07 -3.99471060671715e-07 -7.3825978680642e-26)