/*--------------------------------*- C++ -*----------------------------------*\
  =========                 |
  \\      /  F ield         | OpenFOAM: The Open Source CFD Toolbox
   \\    /   O peration     | Website:  https://openfoam.org
    \\  /    A nd           | Version:  10
     \\/     M anipulation  |
\*---------------------------------------------------------------------------*/
FoamFile
{
    format      ascii;
    class       volScalarField;
    location    "5.6";
    object      wallHeatFlux;
}
// * * * * * * * * * * * * * * * * * * * * * * * * * * * * * * * * * * * * * //

dimensions      [1 0 -3 0 0 0 0];

internalField   uniform 0;

boundaryField
{
    back
    {
        type            calculated;
        value           uniform 0;
    }
    bottom
    {
        type            calculated;
        value           nonuniform List<scalar> 
50
(
107.573521172214
109.966388996762
113.842913444165
116.388552846511
117.807288684061
118.553441443673
118.932258211988
119.117003216918
119.202934781288
119.241076752943
119.25694432402
119.263269976716
119.265672880361
119.266475648381
119.266726555452
119.266740580104
119.266764680768
119.266735402613
119.266686222972
119.266669141326
119.266654084283
119.266645273023
119.266638595314
119.266641328281
119.266634854738
119.266630427295
119.266635663955
119.266640151663
119.26665135019
119.266664500952
119.266679993907
119.266712353661
119.266723786626
119.266728623417
119.266720204927
119.2666383525
119.266324843334
119.265314208241
119.262672343696
119.255730411346
119.238718267728
119.19906649866
119.111114414521
118.924838987898
118.547203773312
117.805763766736
116.392482142406
113.836791048441
109.922037791377
107.603289733408
)
;
    }
    left
    {
        type            calculated;
        value           uniform 0;
    }
    front
    {
        type            calculated;
        value           uniform 0;
    }
    right
    {
        type            calculated;
        value           uniform 0;
    }
    top
    {
        type            calculated;
        value           uniform 0;
    }
}


// ************************************************************************* //
