/*--------------------------------*- C++ -*----------------------------------*\
  =========                 |
  \\      /  F ield         | OpenFOAM: The Open Source CFD Toolbox
   \\    /   O peration     | Website:  https://openfoam.org
    \\  /    A nd           | Version:  10
     \\/     M anipulation  |
\*---------------------------------------------------------------------------*/
FoamFile
{
    format      ascii;
    class       volScalarField;
    location    "0.4";
    object      alphat;
}
// * * * * * * * * * * * * * * * * * * * * * * * * * * * * * * * * * * * * * //

dimensions      [1 -1 -1 0 0 0 0];

internalField   nonuniform List<scalar> 
2500
(
9.03375240245698e-10
9.33012277173053e-10
9.38025392206005e-10
9.38471134586237e-10
9.38508845329501e-10
9.38512261711867e-10
9.38512579982005e-10
9.38512610847922e-10
9.38512615341127e-10
9.38512762908852e-10
9.38512784887628e-10
9.38512644923788e-10
9.38512637948756e-10
9.38512630059279e-10
9.38512596088739e-10
9.38512560882864e-10
9.38512549713223e-10
9.38512539951613e-10
9.38512530359132e-10
9.38512520088045e-10
9.38512510265706e-10
9.38512500805237e-10
9.38512491357797e-10
9.38512481634966e-10
9.38512472757713e-10
9.38512464497762e-10
9.38512456388775e-10
9.38512448134083e-10
9.38512440295782e-10
9.38512433216813e-10
9.38512426308764e-10
9.38512419377667e-10
9.38512413314815e-10
9.38512407513543e-10
9.38512401879654e-10
9.38512396517686e-10
9.38512391923574e-10
9.38512387260102e-10
9.38512381945155e-10
9.38512377385627e-10
9.38512372158538e-10
9.38512362535603e-10
9.38512318524034e-10
9.38512005249845e-10
9.38509592296435e-10
9.38491256280215e-10
9.3835572311999e-10
9.37386154146959e-10
9.3062735852506e-10
9.03301575069433e-10
4.57989029826012e-09
1.29522012110598e-08
1.42525675170011e-08
1.43658994335017e-08
1.4374685718077e-08
1.43754309090399e-08
1.43754957729934e-08
1.43755011116016e-08
1.43755016200705e-08
1.43755099804161e-08
1.43755178834762e-08
1.4375518309676e-08
1.43755185494997e-08
1.43755181603917e-08
1.43755074682248e-08
1.43754961717462e-08
1.43754949632929e-08
1.43754940691748e-08
1.43754931947171e-08
1.43754923234257e-08
1.43754914677496e-08
1.43754906231684e-08
1.4375489800231e-08
1.43754889955839e-08
1.43754882200397e-08
1.43754874678493e-08
1.4375486746951e-08
1.4375486050082e-08
1.43754853872682e-08
1.4375484752598e-08
1.43754841517646e-08
1.43754835796503e-08
1.4375483043627e-08
1.43754825370103e-08
1.4375482067306e-08
1.43754816369987e-08
1.4375481475256e-08
1.43754811088557e-08
1.43754805246358e-08
1.43754802000531e-08
1.43754798637793e-08
1.4375479194157e-08
1.43754755692282e-08
1.43754464333683e-08
1.43751993538371e-08
1.43731104970293e-08
1.43556312634571e-08
1.42095234369358e-08
1.2918149494567e-08
4.56734077390738e-09
4.8055190869216e-09
7.29896593304125e-08
6.83171215188575e-06
7.00985012518116e-06
7.02511013236431e-06
7.02645165288694e-06
7.02656997265416e-06
7.02658035388128e-06
7.02658164136982e-06
7.02658475845115e-06
7.02658643257397e-06
7.0265864075819e-06
7.02658632498855e-06
7.02658584552082e-06
7.02658167173217e-06
7.0265786683736e-06
7.02657799480868e-06
7.02657749186006e-06
7.02657699939596e-06
7.02657650215724e-06
7.02657600563293e-06
7.02657550855241e-06
7.02657501700614e-06
7.02657452921923e-06
7.02657405111239e-06
7.02657358050678e-06
7.02657312228105e-06
7.02657267375183e-06
7.02657223978525e-06
7.02657181733788e-06
7.02657141072822e-06
7.02657101715784e-06
7.02657064084963e-06
7.02657027922376e-06
7.02656993640716e-06
7.02656961394315e-06
7.02656935953704e-06
7.02656903310521e-06
7.0265687381908e-06
7.02656846798738e-06
7.02656815672631e-06
7.02656738289877e-06
7.02656256795506e-06
7.02652281280274e-06
7.02618320202415e-06
7.02329608508529e-06
6.99907365379363e-06
6.79984987181527e-06
7.30210969515756e-08
4.80161998579374e-09
4.86483556926248e-09
7.88788192649386e-08
7.76925676115703e-06
8.01071903123652e-06
8.03411663710967e-06
8.0363689467322e-06
8.03658271811843e-06
8.03660272844152e-06
8.03660484006275e-06
8.03660666835077e-06
8.0366070236563e-06
8.03660637944566e-06
8.0366060923558e-06
8.03660562752913e-06
8.03660330824099e-06
8.0366020056345e-06
8.03660140642032e-06
8.03660090580625e-06
8.03660041505714e-06
8.03659992144081e-06
8.03659943057371e-06
8.03659894080772e-06
8.03659845853153e-06
8.03659798157321e-06
8.03659751591905e-06
8.03659705885523e-06
8.03659661570402e-06
8.03659618336153e-06
8.03659576663114e-06
8.03659536218999e-06
8.03659497449411e-06
8.0365946003375e-06
8.03659424396842e-06
8.03659390242042e-06
8.03659357976332e-06
8.03659327434755e-06
8.0365930030023e-06
8.03659272116144e-06
8.0365924575094e-06
8.03659220341557e-06
8.03659190218509e-06
8.03659111689195e-06
8.03658610485068e-06
8.03654409398551e-06
8.03617845250281e-06
8.03298882944572e-06
8.00524106764171e-06
7.76485073348513e-06
7.9412629405183e-08
4.87186835398364e-09
4.8825954020045e-09
8.04360946605871e-08
8.08205461062584e-06
8.35486380630805e-06
8.38324207052783e-06
8.3861621892953e-06
8.386457251156e-06
8.38648652203279e-06
8.38648941578217e-06
8.38649036165676e-06
8.38649009875226e-06
8.38648945441303e-06
8.3864890607096e-06
8.38648862100231e-06
8.38648760388163e-06
8.38648684714778e-06
8.38648632169231e-06
8.38648584180251e-06
8.38648537094865e-06
8.3864849009909e-06
8.38648443767029e-06
8.38648397902041e-06
8.38648353124236e-06
8.38648309186029e-06
8.38648266656722e-06
8.38648225232446e-06
8.38648185424231e-06
8.38648146886788e-06
8.38648110078776e-06
8.38648074639323e-06
8.38648040990703e-06
8.38648008784433e-06
8.38647978421254e-06
8.38647949578652e-06
8.3864792263251e-06
8.38647897303616e-06
8.38647874301986e-06
8.38647851997577e-06
8.38647831158413e-06
8.38647810693277e-06
8.38647785156155e-06
8.38647710347052e-06
8.38647206886644e-06
8.38642941809324e-06
8.38605621160923e-06
8.38278003674154e-06
8.35403945043342e-06
8.10221703637567e-06
8.12912191691966e-08
4.89518512260153e-09
4.88824873008236e-09
8.08632768542164e-08
8.18609362169695e-06
8.47296958333121e-06
8.50398962976526e-06
8.50732092797551e-06
8.50767298556966e-06
8.50770952644151e-06
8.50771317744294e-06
8.50771374567383e-06
8.50771343111417e-06
8.50771286691659e-06
8.50771242569966e-06
8.50771199518606e-06
8.50771138095069e-06
8.50771082691554e-06
8.50771034801818e-06
8.50770988769485e-06
8.5077094351604e-06
8.50770898558875e-06
8.50770854490183e-06
8.50770811098271e-06
8.50770768985422e-06
8.50770727885125e-06
8.50770688347541e-06
8.50770650050733e-06
8.50770613485956e-06
8.50770578292383e-06
8.50770544910189e-06
8.50770512962989e-06
8.50770482856266e-06
8.5077045422698e-06
8.50770427458807e-06
8.50770402215614e-06
8.50770378853342e-06
8.50770357052074e-06
8.50770337210223e-06
8.50770318536665e-06
8.50770301210304e-06
8.50770284021208e-06
8.50770261571862e-06
8.50770189503958e-06
8.50769686980276e-06
8.50765405962836e-06
8.50727885088566e-06
8.50397990465452e-06
8.47498058355215e-06
8.22020850232296e-06
8.18637303633378e-08
4.90327139369646e-09
4.89009887650995e-09
8.0985266546484e-08
8.22062238429959e-06
8.5133950693669e-06
8.54569253412377e-06
8.54924989360115e-06
8.54963708116897e-06
8.5496785867904e-06
8.54968284098179e-06
8.54968327069629e-06
8.54968303570915e-06
8.54968255729066e-06
8.54968203964783e-06
8.54968161362513e-06
8.54968112876686e-06
8.54968065283564e-06
8.54968020079527e-06
8.54967975557342e-06
8.54967931724614e-06
8.54967888279739e-06
8.54967845828382e-06
8.54967804152119e-06
8.54967763841223e-06
8.54967724620151e-06
8.54967687026349e-06
8.54967650729842e-06
8.54967616210028e-06
8.54967583098689e-06
8.54967551824755e-06
8.54967522005929e-06
8.54967494036756e-06
8.54967467548412e-06
8.54967442914305e-06
8.54967419792903e-06
8.54967398528914e-06
8.54967378788877e-06
8.54967360870104e-06
8.54967344232547e-06
8.54967328891424e-06
8.54967313592299e-06
8.54967292949693e-06
8.5496722256335e-06
8.54966721206701e-06
8.54962437209499e-06
8.5492487021198e-06
8.54594450987637e-06
8.51688614364302e-06
8.26144850247495e-06
8.20447973968115e-08
4.90612920406109e-09
4.89071299395241e-09
8.10213888698192e-08
8.23206413419384e-06
8.52719322583694e-06
8.56006931758764e-06
8.56374135800345e-06
8.56414828337917e-06
8.5641928496625e-06
8.56419752015478e-06
8.56419790970384e-06
8.56419773837972e-06
8.56419727745305e-06
8.56419675621409e-06
8.56419633568391e-06
8.56419589569266e-06
8.56419545218228e-06
8.56419501607185e-06
8.56419458207189e-06
8.56419415443845e-06
8.56419373102636e-06
8.56419331794806e-06
8.56419291300564e-06
8.56419252201297e-06
8.5641921421883e-06
8.56419177881683e-06
8.56419142858002e-06
8.56419109618896e-06
8.56419077794806e-06
8.5641904780683e-06
8.56419019272106e-06
8.56418992577511e-06
8.56418967353862e-06
8.56418943967228e-06
8.56418922075815e-06
8.56418902016924e-06
8.56418883454759e-06
8.56418866652308e-06
8.56418851148196e-06
8.56418836913741e-06
8.56418822686902e-06
8.56418803091269e-06
8.56418733726181e-06
8.56418233267788e-06
8.56413949318893e-06
8.56376374574162e-06
8.56045865182895e-06
8.53139034980361e-06
8.27584352817481e-06
8.21037466791291e-08
4.90714728578827e-09
4.89091833588728e-09
8.10324093079885e-08
8.23585130101931e-06
8.53188982115717e-06
8.56501557796949e-06
8.56874238789795e-06
8.56915965100517e-06
8.56920596138395e-06
8.56921089299949e-06
8.56921127835576e-06
8.56921112686916e-06
8.56921069116154e-06
8.56921017895343e-06
8.56920976560389e-06
8.56920934512239e-06
8.56920891845518e-06
8.56920849404146e-06
8.56920806999316e-06
8.56920765204988e-06
8.56920723844515e-06
8.56920683528455e-06
8.56920644037291e-06
8.56920605944858e-06
8.56920568972901e-06
8.56920533642621e-06
8.56920499622988e-06
8.56920467378329e-06
8.56920436540439e-06
8.56920407524062e-06
8.56920379948113e-06
8.56920354193354e-06
8.56920329892513e-06
8.56920307405721e-06
8.56920286393245e-06
8.56920267186719e-06
8.56920249452345e-06
8.56920233440497e-06
8.56920218718403e-06
8.5692020524808e-06
8.56920191776278e-06
8.5692017293951e-06
8.56920104353717e-06
8.56919604674238e-06
8.56915321405123e-06
8.56877746955475e-06
8.56547237144494e-06
8.53640414059905e-06
8.28085983634087e-06
8.21233331563312e-08
4.90751087943481e-09
4.89098720279624e-09
8.10358486966908e-08
8.23710373151175e-06
8.53348415067405e-06
8.5667136572062e-06
8.57046542011078e-06
8.57088780656348e-06
8.57093505063357e-06
8.5709401344714e-06
8.57094052512427e-06
8.57094038261293e-06
8.57093996613479e-06
8.57093946419317e-06
8.57093905863496e-06
8.57093864979656e-06
8.57093823437812e-06
8.57093781964223e-06
8.57093740464532e-06
8.5709369955923e-06
8.57093659088194e-06
8.57093619657473e-06
8.57093581049607e-06
8.57093543830906e-06
8.57093507725484e-06
8.57093473247361e-06
8.57093440068561e-06
8.57093408646707e-06
8.57093378617098e-06
8.57093350388137e-06
8.57093323582431e-06
8.57093298574496e-06
8.57093275000727e-06
8.57093253215129e-06
8.57093232881651e-06
8.57093214326214e-06
8.57093197219326e-06
8.57093181805054e-06
8.57093167665602e-06
8.57093154763423e-06
8.57093141862092e-06
8.57093123614486e-06
8.57093055662924e-06
8.57092556662925e-06
8.57088274114221e-06
8.57050700933974e-06
8.56720200922643e-06
8.53813494986509e-06
8.28260468278445e-06
8.21299276865398e-08
4.90764071650082e-09
4.89101017873071e-09
8.1036935423815e-08
8.23751733586417e-06
8.53402370099221e-06
8.56729505923343e-06
8.57105776904817e-06
8.5714825828878e-06
8.57153030178709e-06
8.57153546948742e-06
8.57153586645225e-06
8.57153573058172e-06
8.57153532923547e-06
8.57153483777147e-06
8.57153444105116e-06
8.57153404238233e-06
8.57153363726893e-06
8.57153323242477e-06
8.57153282713659e-06
8.57153242770308e-06
8.57153203258777e-06
8.57153164778405e-06
8.57153127113624e-06
8.57153090823169e-06
8.5715305563375e-06
8.571530220523e-06
8.57152989754275e-06
8.57152959190691e-06
8.57152930000739e-06
8.5715290258653e-06
8.57152876574701e-06
8.57152852333596e-06
8.57152829503481e-06
8.57152808432268e-06
8.57152788787845e-06
8.57152770890522e-06
8.57152754415692e-06
8.57152739603385e-06
8.57152726047139e-06
8.57152713713374e-06
8.57152701386323e-06
8.57152683738894e-06
8.57152616445681e-06
8.5715211817067e-06
8.57147836401511e-06
8.57110264320228e-06
8.56779770953293e-06
8.5387314163705e-06
8.2832102314972e-06
8.21321626211119e-08
4.90768689134419e-09
4.89101771811674e-09
8.10372786720285e-08
8.23765357584309e-06
8.53420557023199e-06
8.56749339970035e-06
8.57126076404468e-06
8.57168668554971e-06
8.57173463571339e-06
8.57173984774678e-06
8.57174024976034e-06
8.57174011998116e-06
8.5717397313664e-06
8.57173925015567e-06
8.57173886258157e-06
8.57173847358834e-06
8.57173807833315e-06
8.57173768324004e-06
8.57173728763918e-06
8.57173689779387e-06
8.57173651220375e-06
8.57173613678416e-06
8.57173576940879e-06
8.57173541558647e-06
8.57173507262197e-06
8.57173474551047e-06
8.57173443105178e-06
8.57173413368599e-06
8.57173384985354e-06
8.57173358350772e-06
8.57173333096351e-06
8.5717330958365e-06
8.57173287457503e-06
8.57173267058966e-06
8.57173248060428e-06
8.57173230775858e-06
8.57173214886145e-06
8.57173200627436e-06
8.57173187604128e-06
8.57173175787589e-06
8.57173163985506e-06
8.57173146893325e-06
8.57173080223569e-06
8.57172582654543e-06
8.57168301652485e-06
8.57130730423517e-06
8.56800240208249e-06
8.53893648091106e-06
8.28341976273673e-06
8.21329206404421e-08
4.90770323092428e-09
4.89101998898926e-09
8.10373812834381e-08
8.23769798035543e-06
8.53426627203504e-06
8.56756045922525e-06
8.57132975167191e-06
8.57175616211492e-06
8.57180422076222e-06
8.57180945598856e-06
8.5718098622785e-06
8.57180973898665e-06
8.57180936250088e-06
8.57180889222555e-06
8.57180851481812e-06
8.57180813634909e-06
8.57180775184073e-06
8.57180736751795e-06
8.57180698269376e-06
8.57180660354863e-06
8.57180622859697e-06
8.57180586366964e-06
8.57180550666428e-06
8.57180516300986e-06
8.57180483004553e-06
8.5718045126921e-06
8.57180420779128e-06
8.5718039197133e-06
8.5718036449448e-06
8.57180338737073e-06
8.5718031433521e-06
8.57180291643509e-06
8.57180270311068e-06
8.57180250671971e-06
8.57180232402683e-06
8.57180215810748e-06
8.57180200582315e-06
8.57180186950008e-06
8.57180174528889e-06
8.57180163296387e-06
8.57180152085303e-06
8.5718013561656e-06
8.5718006964477e-06
8.57179572868256e-06
8.57175292726046e-06
8.57137722301554e-06
8.5680723355598e-06
8.53900656569598e-06
8.28349178030665e-06
8.21331734716541e-08
4.90770884774492e-09
4.89102051801385e-09
8.10374070004321e-08
8.23771209452755e-06
8.53428611532569e-06
8.5675827074049e-06
8.57135277971942e-06
8.5717793995108e-06
8.5718275073838e-06
8.57183275496304e-06
8.57183316501183e-06
8.57183304829352e-06
8.57183268345049e-06
8.57183222427046e-06
8.57183185725222e-06
8.57183148941874e-06
8.57183111571943e-06
8.57183074221502e-06
8.57183036819736e-06
8.57182999974971e-06
8.57182963540566e-06
8.57182928090905e-06
8.57182893419102e-06
8.57182860059863e-06
8.5718282775146e-06
8.57182796978233e-06
8.57182767429371e-06
8.57182739534541e-06
8.57182712947669e-06
8.57182688049992e-06
8.57182664482675e-06
8.57182642592876e-06
8.57182622034262e-06
8.5718260313321e-06
8.57182585570457e-06
8.57182569646367e-06
8.57182555052559e-06
8.57182542017573e-06
8.57182530167639e-06
8.57182519486375e-06
8.57182508833537e-06
8.57182492957599e-06
8.57182427660118e-06
8.57181931665125e-06
8.5717765238859e-06
8.57140082737895e-06
8.56809594502687e-06
8.53903022710353e-06
8.28351620731673e-06
8.21332544950392e-08
4.90771071525767e-09
4.8910204024376e-09
8.10374056985083e-08
8.23771606725157e-06
8.53429206323344e-06
8.56758955606317e-06
8.57135993750122e-06
8.57178664384023e-06
8.57183477342724e-06
8.57184002834315e-06
8.57184044226919e-06
8.57184033264152e-06
8.57183998000841e-06
8.57183953282376e-06
8.5718391771715e-06
8.57183882097717e-06
8.57183845912033e-06
8.57183809750364e-06
8.57183773538591e-06
8.57183737874654e-06
8.57183702612837e-06
8.57183668318692e-06
8.57183634787978e-06
8.57183602547251e-06
8.57183571338583e-06
8.57183541638632e-06
8.5718351314111e-06
8.57183486268409e-06
8.57183460679247e-06
8.57183436747639e-06
8.57183414119307e-06
8.57183393133948e-06
8.57183373449196e-06
8.57183355383653e-06
8.57183338621732e-06
8.57183323456525e-06
8.5718330958463e-06
8.57183297230682e-06
8.57183286032026e-06
8.57183275979411e-06
8.57183265960621e-06
8.57183250754372e-06
8.57183186212847e-06
8.57182691091408e-06
8.5717841278527e-06
8.57140843992944e-06
8.56810356159779e-06
8.53903785199977e-06
8.28352409957714e-06
8.21332753008813e-08
4.90771116956458e-09
4.89102011528252e-09
8.10373970978824e-08
8.23771678054407e-06
8.5342934159449e-06
8.56759123259498e-06
8.5713617328347e-06
8.57178847336075e-06
8.57183661227935e-06
8.57184187211572e-06
8.57184228983614e-06
8.57184218737283e-06
8.57184184692019e-06
8.57184141186682e-06
8.57184106765809e-06
8.57184072312137e-06
8.57184037307565e-06
8.5718400232721e-06
8.57183967294547e-06
8.57183932797119e-06
8.57183898691059e-06
8.57183865533065e-06
8.5718383312251e-06
8.57183801977745e-06
8.57183771845379e-06
8.57183743194325e-06
8.57183715723484e-06
8.57183689847672e-06
8.57183665230993e-06
8.57183642239841e-06
8.5718362052494e-06
8.57183600417909e-06
8.57183581580679e-06
8.57183564323354e-06
8.57183548334131e-06
8.57183533898065e-06
8.57183520716842e-06
8.57183509010633e-06
8.57183498428291e-06
8.57183488967709e-06
8.57183479546351e-06
8.57183464974948e-06
8.57183401160733e-06
8.57182906895974e-06
8.57178629563674e-06
8.5714106165969e-06
8.5681057402367e-06
8.53904002598927e-06
8.2835263505224e-06
8.21332768042747e-08
4.9077111981565e-09
4.8910197158011e-09
8.10373848551353e-08
8.23771632388731e-06
8.53429311309986e-06
8.56759104386196e-06
8.57136158776074e-06
8.57178834029022e-06
8.57183648314007e-06
8.57184174701098e-06
8.57184216881306e-06
8.57184207390419e-06
8.57184174614671e-06
8.57184132402588e-06
8.57184099211835e-06
8.57184066014136e-06
8.57184032284254e-06
8.57183998581808e-06
8.57183964827032e-06
8.57183931596836e-06
8.57183898748387e-06
8.57183866829521e-06
8.57183835642587e-06
8.57183805697762e-06
8.57183776745641e-06
8.57183749247473e-06
8.57183722906806e-06
8.57183698131035e-06
8.5718367458908e-06
8.57183652639846e-06
8.57183631938412e-06
8.57183612808399e-06
8.57183594915348e-06
8.57183578560874e-06
8.57183563436281e-06
8.57183549818576e-06
8.5718353741391e-06
8.57183526438214e-06
8.57183516551756e-06
8.57183507760508e-06
8.57183499012476e-06
8.57183485152896e-06
8.57183422147243e-06
8.57182928829971e-06
8.57178652576039e-06
8.57141085675073e-06
8.56810598514667e-06
8.53904026198283e-06
8.28352659398535e-06
8.21332705031839e-08
4.90771099234273e-09
4.89101934175023e-09
8.10373761205459e-08
8.23771570098584e-06
8.53429237276209e-06
8.56759031414999e-06
8.57136086873143e-06
8.57178762367111e-06
8.5718357678475e-06
8.57184103493952e-06
8.57184146036976e-06
8.57184137240144e-06
8.57184105674937e-06
8.57184064739439e-06
8.57184032764019e-06
8.57184000802824e-06
8.57183968323317e-06
8.57183935869977e-06
8.57183903360698e-06
8.57183871362068e-06
8.57183839733228e-06
8.57183809013416e-06
8.57183779008763e-06
8.57183750221386e-06
8.57183722406657e-06
8.5718369601811e-06
8.57183670764594e-06
8.57183647045913e-06
8.57183624536332e-06
8.57183603587004e-06
8.57183583857625e-06
8.57183565663419e-06
8.57183548673728e-06
8.57183533181069e-06
8.57183518880074e-06
8.57183506038912e-06
8.57183494368203e-06
8.57183484079082e-06
8.57183474843658e-06
8.57183466676092e-06
8.57183458556495e-06
8.57183445365932e-06
8.57183383132052e-06
8.57182890736708e-06
8.57178615556976e-06
8.57141049705508e-06
8.56810563036943e-06
8.53903990641781e-06
8.2835262492319e-06
8.21332635162653e-08
4.90771078354995e-09
4.8910190054902e-09
8.10373803227529e-08
8.23771530340682e-06
8.53429145911599e-06
8.56758932593325e-06
8.5713598696918e-06
8.57178662089098e-06
8.57183476444189e-06
8.57184003365473e-06
8.57184046158046e-06
8.57184037908081e-06
8.57184007437569e-06
8.57183967797077e-06
8.57183937091217e-06
8.57183906428383e-06
8.57183875264549e-06
8.57183844128515e-06
8.57183812935108e-06
8.5718378224048e-06
8.57183751905099e-06
8.57183722459691e-06
8.57183693713553e-06
8.57183666160952e-06
8.57183639561401e-06
8.5718361436106e-06
8.57183590273524e-06
8.57183567691182e-06
8.5718354629313e-06
8.57183526423137e-06
8.57183507744661e-06
8.57183490564654e-06
8.57183474555631e-06
8.57183460001164e-06
8.57183446598763e-06
8.57183434607785e-06
8.57183423742406e-06
8.57183414209305e-06
8.57183405692282e-06
8.57183398214752e-06
8.57183390790407e-06
8.57183378337535e-06
8.57183316948577e-06
8.57182825557615e-06
8.57178551549565e-06
8.5714098687954e-06
8.56810501240527e-06
8.53903930285401e-06
8.28352571705188e-06
8.21332574940593e-08
4.90771048995234e-09
4.89101952154452e-09
8.10374514226678e-08
8.23771638453168e-06
8.53429087819558e-06
8.5675884432394e-06
8.57135893553646e-06
8.57178567370733e-06
8.57183381280118e-06
8.57183908040402e-06
8.57183950612428e-06
8.57183942300507e-06
8.57183912333641e-06
8.57183873798254e-06
8.57183844272182e-06
8.5718381482272e-06
8.57183784884326e-06
8.57183754969916e-06
8.57183724992367e-06
8.57183695498091e-06
8.57183666350046e-06
8.5718363807095e-06
8.57183610474413e-06
8.57183584047067e-06
8.5718355855354e-06
8.57183534432899e-06
8.57183511404409e-06
8.57183489852809e-06
8.5718346946288e-06
8.57183450571448e-06
8.57183432845403e-06
8.57183416583069e-06
8.57183401460486e-06
8.57183387752073e-06
8.57183375159324e-06
8.57183363931851e-06
8.57183353786725e-06
8.57183344925607e-06
8.57183337044458e-06
8.57183330176226e-06
8.5718332337205e-06
8.57183311585899e-06
8.57183250978419e-06
8.57182760540624e-06
8.57178487677108e-06
8.57140924243625e-06
8.56810439975235e-06
8.53903874372232e-06
8.28352543958763e-06
8.21332647573263e-08
4.90771027849244e-09
4.89102911980623e-09
8.10375914618677e-08
8.2377176319518e-06
8.5342902485597e-06
8.56758754669616e-06
8.57135799945244e-06
8.57178472995235e-06
8.57183286817739e-06
8.57183813854661e-06
8.5718385679986e-06
8.57183849195356e-06
8.57183820438529e-06
8.57183783152943e-06
8.57183754739829e-06
8.57183726409012e-06
8.57183697598072e-06
8.57183668806417e-06
8.57183639945231e-06
8.57183611552084e-06
8.57183583492441e-06
8.57183556282031e-06
8.57183529738811e-06
8.57183504342401e-06
8.57183479862557e-06
8.57183456732296e-06
8.57183434677035e-06
8.57183414073747e-06
8.57183394613158e-06
8.5718337662799e-06
8.57183359785635e-06
8.57183344376136e-06
8.57183330078914e-06
8.5718331715991e-06
8.57183305327472e-06
8.5718329482103e-06
8.57183285357282e-06
8.57183277133064e-06
8.5718326985667e-06
8.571832635715e-06
8.57183257376225e-06
8.5718324625299e-06
8.57183186432933e-06
8.5718269696836e-06
8.57178425289595e-06
8.57140863190573e-06
8.5681038117559e-06
8.53903827342476e-06
8.28352577999194e-06
8.21333271734951e-08
4.90771040624222e-09
4.89102875048896e-09
8.10375176027859e-08
8.23771455488924e-06
8.53428879120542e-06
8.5675863432636e-06
8.57135683399725e-06
8.57178357150833e-06
8.57183171495014e-06
8.57183699466743e-06
8.57183743616603e-06
8.57183737738118e-06
8.57183711110163e-06
8.57183675347843e-06
8.57183648256428e-06
8.57183621259102e-06
8.57183593794801e-06
8.57183566348506e-06
8.57183538829117e-06
8.5718351176435e-06
8.57183485021411e-06
8.57183459108478e-06
8.57183433847721e-06
8.57183409709949e-06
8.57183386469844e-06
8.57183364554165e-06
8.57183343696071e-06
8.57183324260884e-06
8.57183305945891e-06
8.5718328908612e-06
8.57183273340383e-06
8.57183258988509e-06
8.57183245713033e-06
8.57183233770305e-06
8.5718322288558e-06
8.57183213284697e-06
8.57183204674381e-06
8.57183197244502e-06
8.57183190716637e-06
8.57183185142529e-06
8.57183179644896e-06
8.57183169262906e-06
8.57183110301697e-06
8.57182621874446e-06
8.57178351420341e-06
8.57140790522938e-06
8.56810309083693e-06
8.53903756759387e-06
8.28352529486605e-06
8.21333290816688e-08
4.9077103828841e-09
4.89101800351415e-09
8.10373400755151e-08
8.23771099754819e-06
8.5342870281675e-06
8.56758486080177e-06
8.57135539093946e-06
8.57178213382626e-06
8.57183028120415e-06
8.57183556831317e-06
8.57183601905571e-06
8.57183597343801e-06
8.57183572536281e-06
8.57183538484428e-06
8.57183512992805e-06
8.57183487624487e-06
8.57183461814592e-06
8.5718343603181e-06
8.57183410180735e-06
8.57183384778307e-06
8.57183359690704e-06
8.5718333541863e-06
8.57183311787871e-06
8.57183289256748e-06
8.57183267603322e-06
8.57183247249408e-06
8.57183227941492e-06
8.57183210022952e-06
8.57183193197386e-06
8.57183177828253e-06
8.57183163536152e-06
8.57183150587486e-06
8.57183138667526e-06
8.57183128019607e-06
8.5718311835614e-06
8.57183109896488e-06
8.57183102365552e-06
8.57183095948602e-06
8.57183090379282e-06
8.57183085719778e-06
8.57183081125332e-06
8.57183071683041e-06
8.57183013771627e-06
8.57182526563576e-06
8.57178257474308e-06
8.57140697591034e-06
8.56810214102292e-06
8.53903640229097e-06
8.28352289103758e-06
8.21332444840889e-08
4.90771536830368e-09
4.89101679182028e-09
8.1037289677767e-08
8.23770896476054e-06
8.53428567322558e-06
8.56758364150516e-06
8.57135419290261e-06
8.57178093780453e-06
8.57182908712216e-06
8.57183437928786e-06
8.57183483643427e-06
8.57183480056726e-06
8.57183456717643e-06
8.57183424135842e-06
8.57183400016422e-06
8.57183376040387e-06
8.57183351638735e-06
8.57183327265356e-06
8.57183302823615e-06
8.5718327882298e-06
8.57183255127603e-06
8.57183232235645e-06
8.57183209982456e-06
8.57183188805624e-06
8.57183168487588e-06
8.5718314945063e-06
8.57183131481165e-06
8.57183114868938e-06
8.57183099316397e-06
8.57183085140043e-06
8.57183072009382e-06
8.5718306018272e-06
8.5718304934776e-06
8.57183039736871e-06
8.57183031059743e-06
8.57183023526579e-06
8.57183016869446e-06
8.57183011268929e-06
8.57183006470844e-06
8.57183002548267e-06
8.57182998691893e-06
8.57182990034449e-06
8.5718293302967e-06
8.57182446915406e-06
8.57178179122027e-06
8.57140620525918e-06
8.56810137476405e-06
8.53903561464181e-06
8.2835219715282e-06
8.21332238103171e-08
4.90771514439048e-09
4.89101626103871e-09
8.10372653701336e-08
8.2377073828179e-06
8.53428436336287e-06
8.5675824063909e-06
8.57135296987117e-06
8.57177971511488e-06
8.57182786581886e-06
8.57183316255935e-06
8.5718336255894e-06
8.57183359878829e-06
8.57183337940593e-06
8.57183306805012e-06
8.57183284049435e-06
8.57183261463305e-06
8.57183238470659e-06
8.5718321551064e-06
8.57183192487797e-06
8.57183169911259e-06
8.57183147632879e-06
8.57183126159608e-06
8.57183105352634e-06
8.57183085599266e-06
8.57183066683885e-06
8.57183049009821e-06
8.57183032334832e-06
8.57183016987448e-06
8.57183002674504e-06
8.57182989694042e-06
8.57182977730394e-06
8.57182967034266e-06
8.57182957295038e-06
8.57182948735018e-06
8.57182941063254e-06
8.57182934480865e-06
8.57182928723272e-06
8.57182923966328e-06
8.57182919967927e-06
8.57182916813026e-06
8.57182913729412e-06
8.57182905895172e-06
8.5718284983938e-06
8.57182364867109e-06
8.57178098425963e-06
8.57140541199713e-06
8.56810059116569e-06
8.5390348299901e-06
8.28352118697249e-06
8.21332118912791e-08
4.90770962892077e-09
4.89101583637389e-09
8.10372485757364e-08
8.23770607416393e-06
8.53428318689553e-06
8.56758126817971e-06
8.57135183813023e-06
8.57177858298869e-06
8.57182673475804e-06
8.57183203564406e-06
8.57183250406398e-06
8.57183248563759e-06
8.5718322794141e-06
8.57183198179516e-06
8.57183176722063e-06
8.5718315546036e-06
8.57183133808056e-06
8.57183112189379e-06
8.57183090519098e-06
8.57183069331376e-06
8.57183048432166e-06
8.57183028296486e-06
8.57183008768823e-06
8.57182990271779e-06
8.5718297259569e-06
8.57182956133805e-06
8.57182940639185e-06
8.57182926445427e-06
8.57182913264607e-06
8.5718290138392e-06
8.57182890494257e-06
8.5718288083809e-06
8.57182872106697e-06
8.57182864512196e-06
8.57182857763718e-06
8.57182852053832e-06
8.57182847119664e-06
8.5718284313057e-06
8.57182839857117e-06
8.57182837396472e-06
8.57182835016893e-06
8.57182827940051e-06
8.57182772771237e-06
8.57182288884053e-06
8.57178023748048e-06
8.5714046787378e-06
8.56809986622588e-06
8.5390341105275e-06
8.28352050469664e-06
8.21332055375847e-08
4.90770903708308e-09
4.89101537865048e-09
8.10372318110718e-08
8.2377047407983e-06
8.53428195644436e-06
8.56758007187485e-06
8.57135064678606e-06
8.57177739093419e-06
8.57182554379561e-06
8.5718308489043e-06
8.5718313229397e-06
8.57183131305318e-06
8.57183112007416e-06
8.57183083646604e-06
8.57183063547742e-06
8.57183043690313e-06
8.57183023464697e-06
8.57183003275796e-06
8.57182983021622e-06
8.5718296318982e-06
8.57182943637012e-06
8.57182924826243e-06
8.57182906599109e-06
8.57182889382828e-06
8.57182872972793e-06
8.57182857754774e-06
8.57182843483019e-06
8.5718283048774e-06
8.57182818485171e-06
8.5718280775421e-06
8.57182797989429e-06
8.57182789425149e-06
8.57182781754198e-06
8.57182775178697e-06
8.57182769406893e-06
8.57182764625958e-06
8.57182760571859e-06
8.57182757403055e-06
8.57182754903919e-06
8.57182753184759e-06
8.57182751563996e-06
8.5718274530116e-06
8.5718269107745e-06
8.57182208335642e-06
8.57177944565296e-06
8.57140390094424e-06
8.56809909925892e-06
8.53903334916719e-06
8.28351978849961e-06
8.21331994444536e-08
4.9077087946028e-09
4.89101496741371e-09
8.10372170245355e-08
8.23770351248961e-06
8.53428081891373e-06
8.56757895901781e-06
8.57134953781623e-06
8.57177628141855e-06
8.57182443540129e-06
8.57182974457553e-06
8.57183022427859e-06
8.57183022285188e-06
8.57183004278015e-06
8.57182977290818e-06
8.57182958444756e-06
8.57182939842583e-06
8.5718292088835e-06
8.57182901972307e-06
8.5718288298626e-06
8.57182864398014e-06
8.5718284607919e-06
8.57182828485145e-06
8.57182811459466e-06
8.57182795425949e-06
8.57182780185063e-06
8.57182766115759e-06
8.5718275297601e-06
8.57182741090044e-06
8.57182730178505e-06
8.57182720512543e-06
8.57182711790336e-06
8.57182704238197e-06
8.57182697551484e-06
8.57182691922028e-06
8.57182687054153e-06
8.57182683139496e-06
8.57182679906656e-06
8.57182677487071e-06
8.5718267568334e-06
8.57182674617266e-06
8.57182673690506e-06
8.57182668179761e-06
8.57182614841799e-06
8.57182133188935e-06
8.5717787073429e-06
8.57140317639451e-06
8.56809838374231e-06
8.53903264221558e-06
8.28351913388323e-06
8.213319422612e-08
4.90770859420725e-09
4.89101452888535e-09
8.1037202188995e-08
8.23770222462053e-06
8.53427962160436e-06