/*--------------------------------*- C++ -*----------------------------------*\
  =========                 |
  \\      /  F ield         | OpenFOAM: The Open Source CFD Toolbox
   \\    /   O peration     | Website:  https://openfoam.org
    \\  /    A nd           | Version:  10
     \\/     M anipulation  |
\*---------------------------------------------------------------------------*/
FoamFile
{
    format      ascii;
    class       volScalarField;
    location    "0.4";
    object      h;
}
// * * * * * * * * * * * * * * * * * * * * * * * * * * * * * * * * * * * * * //

dimensions      [0 2 -2 0 0 0 0];

internalField   nonuniform List<scalar> 
2500
(
5024.85824511698
4886.25078400845
4879.55729002374
4879.34675705547
4879.33981357303
4879.33906667341
4879.33874022085
4879.33833600642
4879.33789684551
4879.33773043342
4879.33743992574
4879.33722537887
4879.33709255871
4879.33691653648
4879.33675544139
4879.33656810389
4879.33647813915
4879.33630861708
4879.33617206667
4879.33613375742
4879.33605339157
4879.3359295928
4879.33586924515
4879.3358870706
4879.33584049995
4879.33573908329
4879.33566866092
4879.33569918012
4879.3357370499
4879.33568696246
4879.33569069302
4879.33575424678
4879.33573808481
4879.3357324615
4879.3357804535
4879.33584176945
4879.33594666495
4879.33603607556
4879.33612919261
4879.33624068395
4879.33640050144
4879.33655494226
4879.33673473426
4879.33688067718
4879.33722743003
4879.33777955335
4879.34750454321
4879.6120106941
4886.50207635788
5024.98590053121
2495.03394835561
2427.07099507451
2399.77122277508
2398.8301304585
2398.7999772735
2398.79888395704
2398.79880321642
2398.79875175602
2398.79870233063
2398.79867973078
2398.79864629163
2398.7986194621
2398.79860363081
2398.79859187329
2398.79857275726
2398.7985401285
2398.79851813167
2398.79849539439
2398.7984812444
2398.79847620285
2398.7984671312
2398.79846183361
2398.79846895422
2398.79847151077
2398.79846663846
2398.79845262757
2398.79844481221
2398.79845070084
2398.79845505797
2398.79844777756
2398.79845039338
2398.79844915297
2398.79844577073
2398.7984464878
2398.79845283903
2398.7984685641
2398.79848295848
2398.79849368142
2398.79849775921
2398.79850729329
2398.79853224185
2398.79855655828
2398.79857863514
2398.7986009382
2398.79870381206
2398.8000098964
2398.8328726645
2399.76783974448
2427.26307428588
2503.05215987039
1972.21805411322
1952.80100510624
1945.37100951173
1944.49441375619
1944.46263235626
1944.46143480015
1944.46138275307
1944.46137468007
1944.46136839928
1944.46136481267
1944.46136231681
1944.46135860911
1944.4613571722
1944.46135716884
1944.46135502213
1944.46135082664
1944.46134824959
1944.46134558859
1944.46134223045
1944.46134164033
1944.46134063596
1944.4613387666
1944.46133955925
1944.46134174398
1944.46134302689
1944.46133992676
1944.46133902198
1944.46133972898
1944.46133876418
1944.46133809547
1944.46133858685
1944.46133967351
1944.46133994212
1944.46133980088
1944.46134229843
1944.46134303246
1944.46134475214
1944.46134622392
1944.46134657818
1944.46134878998
1944.46135197522
1944.46135489377
1944.4613576949
1944.4613623483
1944.46140950444
1944.46240190745
1944.48936906327
1945.26815420142
1952.64954325683
1976.19300915594
1877.3462610018
1872.99461698206
1872.13199407532
1871.9092891348
1871.89850498321
1871.89801745706
1871.8979953053
1871.8979935376
1871.89799268659
1871.89799231908
1871.89799213699
1871.89799139357
1871.89799125738
1871.89799147883
1871.89799124711
1871.89799045297
1871.8979898456
1871.89798949868
1871.89798900724
1871.89798931811
1871.89798940785
1871.89798890438
1871.89798871074
1871.89798906486
1871.89798925661
1871.89798911824
1871.89798910041
1871.89798885211
1871.89798877321
1871.89798871822
1871.89798881343
1871.8979890478
1871.89798905772
1871.89798936221
1871.89798989771
1871.89798977793
1871.89799005526
1871.89799023331
1871.89799034646
1871.89799064809
1871.89799106432
1871.89799159006
1871.89799197514
1871.89799278395
1871.89800286341
1871.89823959316
1871.90510244476
1872.11544300127
1872.94383751402
1878.46677590963
1861.24897938618
1860.38700668256
1860.28516565279
1860.23997444886
1860.23724756288
1860.23710202026
1860.2370946747
1860.23709421393
1860.23709409291
1860.23709403151
1860.23709398774
1860.23709391805
1860.2370939457
1860.23709397475
1860.23709394711
1860.23709379471
1860.23709371814
1860.23709367206
1860.23709356814
1860.23709366551
1860.23709367944
1860.23709360667
1860.2370935851
1860.2370935863
1860.23709366055
1860.23709370684
1860.23709365153
1860.23709362467
1860.23709365968
1860.23709361774
1860.23709363208
1860.23709366559
1860.23709363501
1860.23709368781
1860.23709376024
1860.2370937458
1860.2370937954
1860.23709384332
1860.23709387269
1860.23709388396
1860.23709397024
1860.2370940616
1860.2370941168
1860.23709425888
1860.23709628201
1860.23714595004
1860.2386027851
1860.28352034333
1860.37257714829
1861.50254065185
1858.62976995188
1858.47164582919
1858.45877416309
1858.45051851408
1858.44992604032
1858.44988957137
1858.44988751952
1858.44988739656
1858.44988737559
1858.44988736895
1858.44988736213
1858.44988734963
1858.44988735785
1858.44988736136
1858.44988735828
1858.44988733718
1858.44988732298
1858.44988731464
1858.44988730227
1858.44988732333
1858.44988732346
1858.44988731045
1858.44988731295
1858.44988732116
1858.44988732624
1858.44988733232
1858.44988733113
1858.44988732383
1858.44988732181
1858.44988732223
1858.44988733277
1858.44988732985
1858.44988732145
1858.44988732887
1858.44988734388
1858.44988734356
1858.44988734582
1858.44988735407
1858.44988735777
1858.44988736403
1858.44988737683
1858.44988738878
1858.44988739996
1858.44988742422
1858.44988779604
1858.44989713332
1858.45017252812
1858.45868491557
1858.4679910984
1858.68067798831
1858.21563529795
1858.18811285828
1858.18632026676
1858.18490098852
1858.18478366309
1858.18477549746
1858.18477498884
1858.18477495756
1858.18477495353
1858.18477495308
1858.18477495182
1858.18477494947
1858.18477495061
1858.18477495163
1858.18477495154
1858.18477494771
1858.18477494691
1858.18477494586
1858.18477494334
1858.1847749462
1858.184774946
1858.18477494453
1858.18477494525
1858.18477494744
1858.18477494894
1858.18477494916
1858.18477494906
1858.18477494797
1858.18477494689
1858.18477494827
1858.18477494972
1858.18477494926
1858.18477494921
1858.18477495019
1858.18477495164
1858.18477495147
1858.18477495195
1858.18477495307
1858.18477495373
1858.18477495474
1858.18477495634
1858.18477495811
1858.18477496011
1858.18477496413
1858.18477502841
1858.18477666416
1858.1848250613
1858.18632298559
1858.18727405534
1858.22511032486
1858.15150426929
1858.14689341981
1858.14661869172
1858.14638409859
1858.14636227172
1858.14636058121
1858.14636046564
1858.14636045811
1858.1463604574
1858.14636045732
1858.14636045702
1858.14636045671
1858.14636045683
1858.14636045699
1858.14636045693
1858.14636045647
1858.1463604564
1858.14636045622
1858.14636045592
1858.14636045627
1858.14636045626
1858.14636045609
1858.1463604562
1858.14636045669
1858.14636045705
1858.14636045705
1858.1463604571
1858.14636045693
1858.14636045668
1858.1463604569
1858.14636045719
1858.14636045719
1858.14636045708
1858.14636045721
1858.14636045738
1858.14636045732
1858.14636045746
1858.14636045774
1858.14636045773
1858.14636045782
1858.14636045809
1858.14636045842
1858.14636045869
1858.14636045934
1858.14636046997
1858.14636074278
1858.14636883043
1858.14661932904
1858.14671579154
1858.15317775737
1858.14172900394
1858.14097862656
1858.14093357631
1858.14089584265
1858.14089195985
1858.14089162948
1858.14089160489
1858.14089160319
1858.14089160305
1858.14089160303
1858.14089160299
1858.14089160294
1858.14089160295
1858.14089160297
1858.14089160298
1858.14089160294
1858.14089160291
1858.14089160289
1858.14089160287
1858.14089160292
1858.1408916029
1858.14089160288
1858.14089160289
1858.14089160294
1858.14089160301
1858.14089160301
1858.14089160302
1858.14089160302
1858.14089160296
1858.14089160298
1858.14089160301
1858.14089160302
1858.140891603
1858.14089160303
1858.14089160306
1858.14089160306
1858.14089160307
1858.14089160312
1858.14089160312
1858.14089160312
1858.14089160316
1858.1408916032
1858.14089160325
1858.14089160336
1858.14089160506
1858.14089164894
1858.14089295143
1858.14093330842
1858.14094334785
1858.14201344762
1858.14025736552
1858.14013798931
1858.14013034884
1858.14012439849
1858.14012373056
1858.14012366878
1858.14012366382
1858.14012366345
1858.14012366342
1858.14012366342
1858.14012366342
1858.14012366341
1858.1401236634
1858.14012366341
1858.14012366341
1858.1401236634
1858.1401236634
1858.14012366339
1858.14012366339
1858.14012366339
1858.14012366339
1858.14012366339
1858.14012366339
1858.1401236634
1858.14012366341
1858.14012366341
1858.14012366341
1858.1401236634
1858.14012366339
1858.14012366339
1858.1401236634
1858.1401236634
1858.1401236634
1858.1401236634
1858.1401236634
1858.1401236634
1858.1401236634
1858.14012366341
1858.14012366341
1858.14012366341
1858.14012366341
1858.14012366342
1858.14012366342
1858.14012366344
1858.14012366371
1858.14012367057
1858.14012387447
1858.1401301933
1858.1401313316
1858.14030431618
1858.14003801691
1858.14001936654
1858.14001805833
1858.14001713378
1858.14001702183
1858.14001701067
1858.14001700971
1858.14001700964
1858.14001700963
1858.14001700963
1858.14001700963
1858.14001700962
1858.14001700962
1858.14001700962
1858.14001700962
1858.14001700962
1858.14001700962
1858.14001700962
1858.14001700962
1858.14001700961
1858.14001700961
1858.14001700961
1858.14001700961
1858.14001700961
1858.14001700961
1858.14001700961
1858.14001700961
1858.14001700961
1858.1400170096
1858.1400170096
1858.1400170096
1858.1400170096
1858.1400170096
1858.1400170096
1858.1400170096
1858.1400170096
1858.1400170096
1858.1400170096
1858.1400170096
1858.14001700959
1858.14001700959
1858.14001700959
1858.14001700959
1858.1400170096
1858.14001700964
1858.14001701068
1858.1400170419
1858.1400180093
1858.1400181607
1858.14004558974
1858.14000559038
1858.14000271738
1858.14000249285
1858.14000235071
1858.14000233232
1858.14000233036
1858.14000233018
1858.14000233017
1858.14000233016
1858.14000233016
1858.14000233016
1858.14000233016
1858.14000233016
1858.14000233016
1858.14000233016
1858.14000233016
1858.14000233016
1858.14000233015
1858.14000233015
1858.14000233015
1858.14000233015
1858.14000233015
1858.14000233015
1858.14000233014
1858.14000233014
1858.14000233014
1858.14000233014
1858.14000233014
1858.14000233014
1858.14000233013
1858.14000233013
1858.14000233013
1858.14000233013
1858.14000233013
1858.14000233013
1858.14000233013
1858.14000233013
1858.14000233013
1858.14000233012
1858.14000233012
1858.14000233012
1858.14000233012
1858.14000233012
1858.14000233012
1858.14000233013
1858.14000233028
1858.14000233498
1858.14000248055
1858.14000250614
1858.14000678923
1858.14000082958
1858.14000039004
1858.14000035002
1858.14000032822
1858.14000032524
1858.14000032491
1858.14000032487
1858.14000032487
1858.14000032487
1858.14000032487
1858.14000032487
1858.14000032487
1858.14000032487
1858.14000032486
1858.14000032486
1858.14000032486
1858.14000032486
1858.14000032486
1858.14000032486
1858.14000032485
1858.14000032485
1858.14000032485
1858.14000032485
1858.14000032485
1858.14000032485
1858.14000032485
1858.14000032484
1858.14000032484
1858.14000032484
1858.14000032484
1858.14000032484
1858.14000032484
1858.14000032483
1858.14000032483
1858.14000032483
1858.14000032483
1858.14000032483
1858.14000032483
1858.14000032483
1858.14000032482
1858.14000032482
1858.14000032482
1858.14000032482
1858.14000032482
1858.14000032482
1858.14000032484
1858.14000032555
1858.14000034727
1858.14000035401
1858.14000101642
1858.14000013468
1858.1400000657
1858.1400000567
1858.14000005322
1858.14000005274
1858.14000005269
1858.14000005268
1858.14000005268
1858.14000005268
1858.14000005268
1858.14000005268
1858.14000005268
1858.14000005267
1858.14000005267
1858.14000005267
1858.14000005267
1858.14000005267
1858.14000005267
1858.14000005267
1858.14000005266
1858.14000005266
1858.14000005266
1858.14000005266
1858.14000005266
1858.14000005266
1858.14000005265
1858.14000005265
1858.14000005265
1858.14000005265
1858.14000005265
1858.14000005264
1858.14000005264
1858.14000005264
1858.14000005264
1858.14000005264
1858.14000005264
1858.14000005264
1858.14000005263
1858.14000005263
1858.14000005263
1858.14000005263
1858.14000005263
1858.14000005263
1858.14000005263
1858.14000005263
1858.14000005263
1858.14000005274
1858.14000005609
1858.14000005965
1858.14000016337
1858.14000003377
1858.14000002061
1858.14000001674
1858.14000001603
1858.14000001595
1858.14000001594
1858.14000001594
1858.14000001594
1858.14000001594
1858.14000001594
1858.14000001594
1858.14000001594
1858.14000001594
1858.14000001593
1858.14000001593
1858.14000001593
1858.14000001593
1858.14000001593
1858.14000001593
1858.14000001592
1858.14000001592
1858.14000001592
1858.14000001592
1858.14000001592
1858.14000001591
1858.14000001591
1858.14000001591
1858.14000001591
1858.14000001591
1858.1400000159
1858.1400000159
1858.1400000159
1858.1400000159
1858.1400000159
1858.1400000159
1858.1400000159
1858.14000001589
1858.14000001589
1858.14000001589
1858.14000001589
1858.14000001589
1858.14000001589
1858.14000001589
1858.14000001589
1858.14000001588
1858.14000001588
1858.14000001591
1858.14000001657
1858.14000001956
1858.14000003806
1858.14000001919
1858.14000001436
1858.14000001132
1858.14000001103
1858.14000001101
1858.14000001101
1858.14000001101
1858.14000001101
1858.14000001101
1858.14000001101
1858.14000001101
1858.14000001101
1858.140000011
1858.140000011
1858.140000011
1858.140000011
1858.140000011
1858.140000011
1858.14000001099
1858.14000001099
1858.14000001099
1858.14000001099
1858.14000001099
1858.14000001098
1858.14000001098
1858.14000001098
1858.14000001098
1858.14000001098
1858.14000001097
1858.14000001097
1858.14000001097
1858.14000001097
1858.14000001097
1858.14000001097
1858.14000001096
1858.14000001096
1858.14000001096
1858.14000001096
1858.14000001096
1858.14000001096
1858.14000001096
1858.14000001095
1858.14000001095
1858.14000001095
1858.14000001095
1858.14000001095
1858.14000001096
1858.14000001123
1858.14000001413
1858.14000001976
1858.1400000171
1858.1400000135
1858.14000001059
1858.14000001037
1858.14000001036
1858.14000001036
1858.14000001036
1858.14000001036
1858.14000001035
1858.14000001035
1858.14000001035
1858.14000001035
1858.14000001035
1858.14000001035
1858.14000001035
1858.14000001035
1858.14000001034
1858.14000001034
1858.14000001034
1858.14000001034
1858.14000001034
1858.14000001033
1858.14000001033
1858.14000001033
1858.14000001033
1858.14000001032
1858.14000001032
1858.14000001032
1858.14000001032
1858.14000001032
1858.14000001031
1858.14000001031
1858.14000001031
1858.14000001031
1858.14000001031
1858.14000001031
1858.14000001031
1858.1400000103
1858.1400000103
1858.1400000103
1858.1400000103
1858.1400000103
1858.1400000103
1858.1400000103
1858.14000001029
1858.14000001029
1858.1400000103
1858.14000001052
1858.1400000134
1858.1400000171
1858.1400000168
1858.14000001338
1858.1400000105
1858.14000001028
1858.14000001027
1858.14000001027
1858.14000001027
1858.14000001027
1858.14000001027
1858.14000001027
1858.14000001027
1858.14000001027
1858.14000001027
1858.14000001027
1858.14000001026
1858.14000001026
1858.14000001026
1858.14000001026
1858.14000001026
1858.14000001025
1858.14000001025
1858.14000001025
1858.14000001025
1858.14000001025
1858.14000001024
1858.14000001024
1858.14000001024
1858.14000001024
1858.14000001024
1858.14000001023
1858.14000001023
1858.14000001023
1858.14000001023
1858.14000001023
1858.14000001022
1858.14000001022
1858.14000001022
1858.14000001022
1858.14000001022
1858.14000001022
1858.14000001021
1858.14000001021
1858.14000001021
1858.14000001021
1858.14000001021
1858.14000001021
1858.14000001022
1858.14000001043
1858.1400000133
1858.14000001672
1858.14000001677
1858.14000001337
1858.14000001049
1858.14000001027
1858.14000001027
1858.14000001027
1858.14000001027
1858.14000001027
1858.14000001027
1858.14000001026
1858.14000001026
1858.14000001026
1858.14000001026
1858.14000001026
1858.14000001026
1858.14000001025
1858.14000001025
1858.14000001025
1858.14000001025
1858.14000001025
1858.14000001024
1858.14000001024
1858.14000001024
1858.14000001024
1858.14000001024
1858.14000001023
1858.14000001023
1858.14000001023
1858.14000001023
1858.14000001023
1858.14000001022
1858.14000001022
1858.14000001022
1858.14000001022
1858.14000001022
1858.14000001021
1858.14000001021
1858.14000001021
1858.14000001021
1858.14000001021
1858.14000001021
1858.1400000102
1858.1400000102
1858.1400000102
1858.1400000102
1858.1400000102
1858.14000001021
1858.14000001042
1858.14000001329
1858.14000001667
1858.14000001677
1858.14000001338
1858.14000001049
1858.14000001028
1858.14000001027
1858.14000001027
1858.14000001027
1858.14000001027
1858.14000001027
1858.14000001027
1858.14000001027
1858.14000001026
1858.14000001026
1858.14000001026
1858.14000001026
1858.14000001026
1858.14000001026
1858.14000001025
1858.14000001025
1858.14000001025
1858.14000001025
1858.14000001024
1858.14000001024
1858.14000001024
1858.14000001024
1858.14000001024
1858.14000001023
1858.14000001023
1858.14000001023
1858.14000001023
1858.14000001022
1858.14000001022
1858.14000001022
1858.14000001022
1858.14000001022
1858.14000001022
1858.14000001021
1858.14000001021
1858.14000001021
1858.14000001021
1858.14000001021
1858.14000001021
1858.1400000102
1858.1400000102
1858.1400000102
1858.1400000102
1858.14000001021
1858.14000001042
1858.14000001329
1858.14000001666
1858.14000001677
1858.14000001338
1858.14000001049
1858.14000001028
1858.14000001027
1858.14000001027
1858.14000001027
1858.14000001027
1858.14000001027
1858.14000001027
1858.14000001027
1858.14000001027
1858.14000001027
1858.14000001026
1858.14000001026
1858.14000001026
1858.14000001026
1858.14000001026
1858.14000001025
1858.14000001025
1858.14000001025
1858.14000001025
1858.14000001024
1858.14000001024
1858.14000001024
1858.14000001024
1858.14000001024
1858.14000001023
1858.14000001023
1858.14000001023
1858.14000001023
1858.14000001022
1858.14000001022
1858.14000001022
1858.14000001022
1858.14000001022
1858.14000001022
1858.14000001021
1858.14000001021
1858.14000001021
1858.14000001021
1858.14000001021
1858.14000001021
1858.1400000102
1858.1400000102
1858.1400000102
1858.14000001021
1858.14000001042
1858.14000001329
1858.14000001666
1858.14000001678
1858.14000001338
1858.1400000105
1858.14000001028
1858.14000001028
1858.14000001028
1858.14000001028
1858.14000001027
1858.14000001027
1858.14000001027
1858.14000001027
1858.14000001027
1858.14000001027
1858.14000001027
1858.14000001026
1858.14000001026
1858.14000001026
1858.14000001026
1858.14000001026
1858.14000001025
1858.14000001025
1858.14000001025
1858.14000001025
1858.14000001024
1858.14000001024
1858.14000001024
1858.14000001024
1858.14000001023
1858.14000001023
1858.14000001023
1858.14000001023
1858.14000001023
1858.14000001022
1858.14000001022
1858.14000001022
1858.14000001022
1858.14000001022
1858.14000001022
1858.14000001021
1858.14000001021
1858.14000001021
1858.14000001021
1858.14000001021
1858.14000001021
1858.14000001021
1858.1400000102
1858.14000001021
1858.14000001042
1858.1400000133
1858.14000001667
1858.14000001678
1858.14000001339
1858.1400000105
1858.14000001028
1858.14000001028
1858.14000001028
1858.14000001028
1858.14000001028
1858.14000001027
1858.14000001027
1858.14000001027
1858.14000001027
1858.14000001027
1858.14000001027
1858.14000001027
1858.14000001026
1858.14000001026
1858.14000001026
1858.14000001026
1858.14000001025
1858.14000001025
1858.14000001025
1858.14000001025
1858.14000001025
1858.14000001024
1858.14000001024
1858.14000001024
1858.14000001024
1858.14000001023
1858.14000001023
1858.14000001023
1858.14000001023
1858.14000001023
1858.14000001022
1858.14000001022
1858.14000001022
1858.14000001022
1858.14000001022
1858.14000001022
1858.14000001021
1858.14000001021
1858.14000001021
1858.14000001021
1858.14000001021
1858.14000001021
1858.14000001021
1858.14000001021
1858.14000001042
1858.1400000133
1858.14000001667
1858.14000001678
1858.14000001339
1858.1400000105
1858.14000001029
1858.14000001028
1858.14000001028
1858.14000001028
1858.14000001028
1858.14000001028
1858.14000001027
1858.14000001027
1858.14000001027
1858.14000001027
1858.14000001027
1858.14000001027
1858.14000001026
1858.14000001026
1858.14000001026
1858.14000001026
1858.14000001026
1858.14000001025
1858.14000001025
1858.14000001025
1858.14000001025
1858.14000001024
1858.14000001024
1858.14000001024
1858.14000001024
1858.14000001024
1858.14000001023
1858.14000001023
1858.14000001023
1858.14000001023
1858.14000001022
1858.14000001022
1858.14000001022
1858.14000001022
1858.14000001022
1858.14000001022
1858.14000001021
1858.14000001021
1858.14000001021
1858.14000001021
1858.14000001021
1858.14000001021
1858.14000001021
1858.14000001021
1858.14000001042
1858.1400000133
1858.14000001667
1858.14000001678
1858.14000001339
1858.1400000105
1858.14000001029
1858.14000001028
1858.14000001028
1858.14000001028
1858.14000001028
1858.14000001028
1858.14000001027
1858.14000001027
1858.14000001027
1858.14000001027
1858.14000001027
1858.14000001027
1858.14000001027
1858.14000001026
1858.14000001026
1858.14000001026
1858.14000001026
1858.14000001025
1858.14000001025
1858.14000001025
1858.14000001025
1858.14000001024
1858.14000001024
1858.14000001024
1858.14000001024
1858.14000001024
1858.14000001023
1858.14000001023
1858.14000001023
1858.14000001023
1858.14000001022
1858.14000001022
1858.14000001022
1858.14000001022
1858.14000001022
1858.14000001021
1858.14000001021
1858.14000001021
1858.14000001021
1858.14000001021
1858.14000001021
1858.14000001021
1858.14000001021
1858.14000001021
1858.14000001042
1858.1400000133
1858.14000001667
1858.14000001678
1858.14000001339
1858.1400000105
1858.14000001029
1858.14000001028
1858.14000001028
1858.14000001028
1858.14000001028
1858.14000001028
1858.14000001027
1858.14000001027
1858.14000001027
1858.14000001027
1858.14000001027
1858.14000001027
1858.14000001026
1858.14000001026
1858.14000001026
1858.14000001026
1858.14000001026
1858.14000001025
1858.14000001025
1858.14000001025
1858.14000001025
1858.14000001024
1858.14000001024
1858.14000001024
1858.14000001024
1858.14000001023
1858.14000001023
1858.14000001023
1858.14000001023
1858.14000001023
1858.14000001022
1858.14000001022
1858.14000001022
1858.14000001022
1858.14000001022
1858.14000001021
1858.14000001021
1858.14000001021
1858.14000001021
1858.14000001021
1858.14000001021
1858.14000001021
1858.14000001021
1858.14000001021
1858.14000001042
1858.1400000133
1858.14000001667
1858.14000001678
1858.14000001339
1858.1400000105
1858.14000001028
1858.14000001028
1858.14000001028
1858.14000001028
1858.14000001027
1858.14000001027
1858.14000001027
1858.14000001027
1858.14000001027
1858.14000001027
1858.14000001027
1858.14000001026
1858.14000001026
1858.14000001026
1858.14000001026
1858.14000001026
1858.14000001025
1858.14000001025
1858.14000001025
1858.14000001025
1858.14000001025
1858.14000001024
1858.14000001024
1858.14000001024
1858.14000001024
1858.14000001023
1858.14000001023
1858.14000001023
1858.14000001023
1858.14000001022
1858.14000001022
1858.14000001022
1858.14000001022
1858.14000001022
1858.14000001022
1858.14000001021
1858.14000001021
1858.14000001021
1858.14000001021
1858.14000001021
1858.14000001021
1858.1400000102
1858.1400000102
1858.14000001021
1858.14000001042
1858.1400000133
1858.14000001667
1858.14000001678
1858.14000001338
1858.1400000105
1858.14000001028
1858.14000001027
1858.14000001027
1858.14000001027
1858.14000001027
1858.14000001027
1858.14000001027
1858.14000001027
1858.14000001027
1858.14000001027
1858.14000001026
1858.14000001026
1858.14000001026
1858.14000001026
1858.14000001026
1858.14000001025
1858.14000001025
1858.14000001025
1858.14000001025
1858.14000001025
1858.14000001024
1858.14000001024
1858.14000001024
1858.14000001024
1858.14000001023
1858.14000001023
1858.14000001023
1858.14000001023
1858.14000001023
1858.14000001022
1858.14000001022
1858.14000001022
1858.14000001022
1858.14000001022
1858.14000001021
1858.14000001021
1858.14000001021
1858.14000001021
1858.14000001021
1858.14000001021
1858.1400000102
1858.1400000102
1858.1400000102
1858.14000001021
1858.14000001042
1858.1400000133
1858.14000001666
1858.14000001677
1858.14000001338
1858.14000001049
1858.14000001028
1858.14000001027
1858.14000001027
1858.14000001027
1858.14000001027
1858.14000001027
1858.14000001027
1858.14000001027
1858.14000001027
1858.14000001026
1858.14000001026
1858.14000001026
1858.14000001026
1858.14000001026
1858.14000001025
1858.14000001025
1858.14000001025
1858.14000001025
1858.14000001025
1858.14000001024
1858.14000001024
1858.14000001024
1858.14000001024
1858.14000001023
1858.14000001023
1858.14000001023
1858.14000001023
1858.14000001023
1858.14000001022
1858.14000001022
1858.14000001022
1858.14000001022
1858.14000001022
1858.14000001021
1858.14000001021
1858.14000001021
1858.14000001021
1858.14000001021
1858.14000001021
1858.1400000102
1858.1400000102
1858.1400000102
1858.1400000102
1858.14000001021
1858.14000001042
1858.14000001329
1858.14000001666
1858.14000001677
1858.14000001338
1858.14000001049
1858.14000001028
1858.14000001027
1858.14000001027
1858.14000001027
1858.14000001027
1858.14000001027
1858.14000001026
1858.14000001026
1858.14000001026
1858.14000001026
1858.14000001026
1858.14000001026
1858.14000001025
1858.14000001025
1858.14000001025
1858.14000001025
1858.14000001025
1858.14000001024
1858.14000001024
1858.14000001024
1858.14000001024
1858.14000001024
1858.14000001023
1858.14000001023
1858.14000001023
1858.14000001023
1858.14000001022
1858.14000001022
1858.14000001022
1858.14000001022
1858.14000001022
1858.14000001022
1858.14000001021
1858.14000001021
1858.14000001021
1858.14000001021
1858.14000001021
1858.1400000102
1858.1400000102
1858.1400000102
1858.1400000102
1858.1400000102
1858.1400000102
1858.14000001021
1858.14000001042
1858.14000001329
1858.14000001666
1858.14000001676
1858.14000001337
1858.14000001049
1858.14000001027
1858.14000001026
1858.14000001026
1858.14000001026
1858.14000001026
1858.14000001026
1858.14000001026
1858.14000001026
1858.14000001026
1858.14000001026
1858.14000001025
1858.14000001025
1858.14000001025
1858.14000001025
1858.14000001025
1858.14000001024
1858.14000001024
1858.14000001024
1858.14000001024
1858.14000001024
1858.14000001023
1858.14000001023
1858.14000001023
1858.14000001023
1858.14000001023
1858.14000001022
1858.14000001022
1858.14000001022
1858.14000001022
1858.14000001021
1858.14000001021
1858.14000001021
1858.14000001021
1858.14000001021
1858.14000001021
1858.1400000102
1858.1400000102
1858.1400000102
1858.1400000102
1858.1400000102
1858.1400000102
1858.1400000102
1858.1400000102
1858.1400000102
1858.14000001041
1858.14000001329
1858.14000001665
1858.14000001675
1858.14000001336
1858.14000001048
1858.14000001027
1858.14000001026
1858.14000001026
1858.14000001026
1858.14000001026
1858.14000001026
1858.14000001025
1858.14000001025
1858.14000001025
1858.14000001025
1858.14000001025
1858.14000001025
1858.14000001025
1858.14000001024
1858.14000001024
1858.14000001024
1858.14000001024
1858.14000001024
1858.14000001023
1858.14000001023
1858.14000001023
1858.14000001023
1858.14000001023
1858.14000001022
1858.14000001022
1858.14000001022
1858.14000001022
1858.14000001022
1858.14000001021
1858.14000001021
1858.14000001021
1858.14000001021
1858.14000001021
1858.1400000102
1858.1400000102
1858.1400000102
1858.1400000102
1858.1400000102
1858.1400000102
1858.1400000102
1858.14000001019
1858.14000001019
1858.14000001019
1858.1400000102
1858.14000001041
1858.14000001328
1858.14000001665
1858.14000001674
1858.14000001336
1858.14000001048
1858.14000001026
1858.14000001025
1858.14000001025
1858.14000001025
1858.14000001025
1858.14000001025
1858.14000001025
1858.14000001025
1858.14000001025
1858.14000001025
1858.14000001024
1858.14000001024
1858.14000001024
1858.14000001024
1858.14000001024
1858.14000001024
1858.14000001023
1858.14000001023
1858.14000001023
1858.14000001023
1858.14000001022
1858.14000001022
1858.14000001022
1858.14000001022
1858.14000001022
1858.14000001021
1858.14000001021
1858.14000001021
1858.14000001021
1858.14000001021
1858.14000001021
1858.1400000102
1858.1400000102
1858.1400000102
1858.1400000102
1858.1400000102
1858.1400000102
1858.14000001019
1858.14000001019
1858.14000001019
1858.14000001019
1858.14000001019
1858.14000001019
1858.1400000102
1858.14000001041
1858.14000001328
1858.14000001664
1858.14000001673
1858.14000001335
1858.14000001047
1858.14000001025
1858.14000001025
1858.14000001025
1858.14000001025
1858.14000001024
1858.14000001024
1858.14000001024
1858.14000001024
1858.14000001024
1858.14000001024
1858.14000001024
1858.14000001024
1858.14000001023
1858.14000001023
1858.14000001023
1858.14000001023
1858.14000001023
1858.14000001022
1858.14000001022
1858.14000001022
1858.14000001022
1858.14000001022
1858.14000001021
1858.14000001021
1858.14000001021
1858.14000001021
1858.14000001021
1858.14000001021
1858.1400000102
1858.1400000102
1858.1400000102
1858.1400000102
1858.1400000102
1858.1400000102
1858.14000001019
1858.14000001019
1858.14000001019
1858.14000001019
1858.14000001019
1858.14000001019
1858.14000001019
1858.14000001019
1858.14000001018
1858.14000001019
1858.1400000104
1858.14000001327
1858.14000001664
1858.14000001672
1858.14000001334
1858.14000001046
1858.14000001025
1858.14000001024
1858.14000001024
1858.14000001024
1858.14000001024
1858.14000001024
1858.14000001024
1858.14000001024
1858.14000001023
1858.14000001023
1858.14000001023
1858.14000001023
1858.14000001023
1858.14000001023
1858.14000001022
1858.14000001022
1858.14000001022
1858.14000001022
1858.14000001022
1858.14000001022
1858.14000001021
1858.14000001021
1858.14000001021
1858.14000001021
1858.14000001021
1858.1400000102
1858.1400000102
1858.1400000102
1858.1400000102
1858.1400000102
1858.1400000102
1858.14000001019
1858.14000001019