/*--------------------------------*- C++ -*----------------------------------*\
  =========                 |
  \\      /  F ield         | OpenFOAM: The Open Source CFD Toolbox
   \\    /   O peration     | Website:  https://openfoam.org
    \\  /    A nd           | Version:  10
     \\/     M anipulation  |
\*---------------------------------------------------------------------------*/
FoamFile
{
    format      ascii;
    class       volScalarField;
    location    "0.4";
    object      k;
}
// * * * * * * * * * * * * * * * * * * * * * * * * * * * * * * * * * * * * * //

dimensions      [0 2 -2 0 0 0 0];

internalField   nonuniform List<scalar> 
2500
(
0.000100706259584453
0.000104101314854018
0.00010465682881538
0.000104706439766177
0.000104710642739505
0.000104711023123919
0.000104711058243411
0.000104711061197044
0.000104711061160733
0.000104711077395751
0.000104711079456647
0.000104711063563397
0.000104711062606363
0.000104711061491002
0.000104711057484486
0.000104711053305872
0.000104711051929443
0.000104711050643808
0.000104711049382308
0.000104711048130635
0.00010471104691113
0.000104711045713111
0.000104711044558656
0.000104711043434439
0.000104711042361111
0.000104711041324091
0.000104711040341256
0.000104711039398755
0.000104711038512802
0.000104711037667273
0.000104711036877758
0.000104711036130069
0.000104711035438412
0.000104711034788973
0.000104711034196278
0.000104711033649431
0.000104711033221682
0.000104711032768841
0.000104711032291158
0.000104711031901992
0.000104711031479124
0.000104711030578153
0.000104711025873561
0.000104710991083051
0.000104710722270511
0.000104708676940175
0.000104693561137197
0.000104585536695982
0.00010383535581603
0.000100698119062241
0.000124911311222004
0.000156932262673098
0.000172656610600005
0.000174028436325023
0.00017413483853394
0.000174143864496103
0.000174144650146865
0.000174144714738604
0.000174144720817306
0.000174144822041563
0.000174144917710954
0.000174144922810756
0.000174144925663127
0.000174144920899199
0.000174144791313746
0.000174144654390452
0.000174144639684329
0.000174144628784098
0.000174144618131067
0.000174144607526275
0.000174144597105593
0.000174144586823486
0.000174144576817924
0.000174144567028896
0.000174144557584258
0.000174144548412563
0.000174144539627848
0.000174144531150933
0.000174144523085824
0.000174144515349393
0.000174144508035549
0.000174144501066542
0.00017414449453374
0.000174144488363454
0.000174144482648445
0.000174144477423183
0.000174144475451511
0.000174144470998151
0.000174144463900258
0.000174144459955727
0.000174144455889202
0.000174144447785634
0.000174144403880837
0.000174144050939021
0.000174141057924175
0.000174115755023226
0.000173904049571259
0.00017213516636007
0.000156519881091791
0.00012457565193465
0.000130611618687249
0.00022039634091581
0.000297039143202509
0.000304782712926698
0.000305446141478413
0.000305504467259641
0.000305509611571694
0.000305510062886358
0.000305510118810763
0.000305510254284642
0.000305510327017157
0.000305510325866532
0.000305510322211923
0.000305510301300735
0.000305510119755835
0.000305509989093316
0.000305509959729252
0.00030550993778133
0.000305509916286338
0.000305509894588255
0.000305509872919694
0.000305509851224876
0.00030550982977613
0.000305509808494055
0.000305509787631757
0.000305509767087748
0.000305509747087772
0.000305509727514235
0.0003055097085723
0.00030550969013385
0.000305509672388602
0.000305509655213916
0.000305509638790699
0.000305509623007745
0.000305509608050797
0.000305509593978133
0.000305509582869601
0.000305509568632046
0.000305509555765731
0.000305509543980793
0.00030550953041591
0.000305509496741745
0.000305509287366199
0.000305507558825674
0.00030549279289346
0.000305367265361875
0.00030431414796758
0.000295653584424091
0.000220491045226906
0.000130509083953291
0.000132140597619891
0.000238052884965297
0.000337638939898402
0.000348131972803929
0.000349148767212822
0.000349246647521803
0.000349255937568752
0.000349256807137014
0.000349256898854669
0.000349256978254337
0.000349256993635594
0.000349256965573148
0.000349256953027255
0.000349256932753839
0.000349256831883978
0.000349256775192817
0.000349256749067589
0.000349256727225738
0.00034925670581054
0.000349256684271341
0.000349256662850309
0.000349256641475394
0.00034925662042675
0.000349256599610933
0.000349256579286828
0.000349256559336453
0.000349256539992477
0.000349256521119494
0.000349256502927455
0.000349256485271868
0.000349256468346907
0.000349256452013421
0.000349256436455376
0.000349256421545217
0.000349256407459804
0.000349256394125512
0.000349256382276246
0.000349256369974167
0.000349256358465992
0.000349256347377283
0.000349256334244054
0.000349256300078293
0.000349256082228875
0.000349254256479679
0.000349238366331131
0.000349099751374546
0.000347893897636484
0.000337447421575558
0.000239663818353816
0.00013233260800728
0.000132608832641787
0.000242732370141888
0.000351205007267741
0.000363059799136989
0.000364292967249261
0.00036441986034384
0.000364432682173808
0.000364433954092479
0.000364434079790017
0.000364434120836824
0.000364434109350504
0.000364434081283552
0.000364434064103307
0.000364434044919592
0.000364434000640438
0.000364433967672728
0.000364433944752568
0.000364433923810233
0.000364433903258623
0.000364433882745138
0.000364433862519042
0.00036443384249533
0.00036443382294424
0.000364433803758526
0.000364433785186089
0.000364433767094999
0.000364433749707485
0.000364433732874127
0.000364433716794605
0.000364433701312025
0.000364433686610451
0.000364433672538568
0.000364433659270512
0.000364433646666654
0.000364433634890328
0.000364433623820066
0.000364433613764872
0.000364433604016334
0.000364433594908219
0.00036443358596639
0.000364433574824558
0.000364433542275535
0.000364433323460378
0.000364431470042541
0.000364415252367376
0.00036427288660459
0.000363023970727801
0.000352081157202181
0.000245312857854749
0.000132950985821107
0.00013276007038
0.000244018385311921
0.000355721712822294
0.000368187712830278
0.000369535668505823
0.000369680427912429
0.000369695726317683
0.000369697314134749
0.000369697472736347
0.000369697497371854
0.000369697483640397
0.000369697459055659
0.000369697439810099
0.000369697421025218
0.000369697394252914
0.000369697370093162
0.000369697349195658
0.000369697329102975
0.000369697309346936
0.000369697289718414
0.000369697270475091
0.000369697251525453
0.000369697233131731
0.000369697215178504
0.000369697197905212
0.000369697181172335
0.000369697165193668
0.000369697149812731
0.00036969713522112
0.000369697121255536
0.00036969710809244
0.00036969709557423
0.000369697083867845
0.000369697072827441
0.000369697062607816
0.000369697053070021
0.00036969704438733
0.000369697036216054
0.000369697028633974
0.000369697021115389
0.000369697011314895
0.00036969697995689
0.00036969676155096
0.000369694901227824
0.000369678596733398
0.000369535243041861
0.000368275095941438
0.000357204151197395
0.000247037412224154
0.000133168115232159
0.000132809957705437
0.000244386057341322
0.00035722150452381
0.00036994373714494
0.000371347200986824
0.000371501783549617
0.000371518608480962
0.000371520412035159
0.000371520596847608
0.000371520615463844
0.000371520605190098
0.000371520584332816
0.000371520561766167
0.000371520543176403
0.000371520522026094
0.000371520501260337
0.000371520481529919
0.000371520462093482
0.000371520442954839
0.000371520423983441
0.000371520405442934
0.000371520387238868
0.00037152036962819
0.000371520352491577
0.000371520336062961
0.000371520320199317
0.00037152030510931
0.000371520290633245
0.000371520276957806
0.000371520263917137
0.000371520251682922
0.000371520240095101
0.000371520229316135
0.000371520219197783
0.000371520209889984
0.000371520201247952
0.000371520193400991
0.000371520186114507
0.000371520179395176
0.000371520172697943
0.000371520163682629
0.000371520133055452
0.000371519915157095
0.000371518053542383
0.00037150172903293
0.000371358147608454
0.000370095436365657
0.000358995572705144
0.000247583358658872
0.000133245331931742
0.000132826584170273
0.000244495003131192
0.000357718615010606
0.000370543243598226
0.000371971851194197
0.000372131417118719
0.000372149099739966
0.000372151036292778
0.000372151239195324
0.000372151256066301
0.000372151248559136
0.00037215122846214
0.000372151205739441
0.000372151187388596
0.000372151168188227
0.0003721511488316
0.000372151129793722
0.000372151110845256
0.000372151092171654
0.000372151073680191
0.000372151055636956
0.000372151037946896
0.00037215102086309
0.000372151004265069
0.000372150988382891
0.000372150973072713
0.000372150958539595
0.000372150944623261
0.000372150931506988
0.000372150919024669
0.00037215090734466
0.000372150896306748
0.000372150886070201
0.000372150876486661
0.000372150867702849
0.00037215085957297
0.000372150852211407
0.000372150845417753
0.00037215083917961
0.000372150832948616
0.000372150824388531
0.000372150794205403
0.000372150576697677
0.000372148715104607
0.000372132387232395
0.000371988766655408
0.000370725623842716
0.000359621015330413
0.00024776118877199
0.000133272922573295
0.000132832156638315
0.000244528257229621
0.000357883181565083
0.000370747329141709
0.000372186785796592
0.000372348731694767
0.000372366863535124
0.000372368875876489
0.000372369090126112
0.000372369106815094
0.000372369100170207
0.000372369081169389
0.000372369058839462
0.00037236904080103
0.00037236902244886
0.000372369003824587
0.000372368985295451
0.000372368966779917
0.0003723689485279
0.000372368930463126
0.000372368912851385
0.00037236889559774
0.000372368878951982
0.000372368862793608
0.000372368847349494
0.000372368832476152
0.000372368818375694
0.00037236880488843
0.000372368792194875
0.000372368780129691
0.000372368768858579
0.000372368758222154
0.000372368748377102
0.000372368739175963
0.000372368730762992
0.000372368722993262
0.000372368715975676
0.000372368709522255
0.00037236870361656
0.000372368697714047
0.000372368689484093
0.000372368659639959
0.000372368442471044
0.000372366581173694
0.000372350253430059
0.000372206632671044
0.000370943492940656
0.00035983899336816
0.000247820292484781
0.000133282791753049
0.000132834029908315
0.000244538642530656
0.000357937614509645
0.00037081661948836
0.000372260584561384
0.000372423614778779
0.000372441969251154
0.000372444022165611
0.000372444243030145
0.000372444259949541
0.000372444253694981
0.000372444235530135
0.00037244421364675
0.000372444195947347
0.000372444178101621
0.00037244415996669
0.00037244414185866
0.000372444123737032
0.000372444105871938
0.00037244408819428
0.000372444070967884
0.000372444054098703
0.000372444037833257
0.000372444022052068
0.000372444006978888
0.000372443992471558
0.000372443978729271
0.000372443965593859
0.00037244395324308
0.0003724439415132
0.000372443930567201
0.000372443920247294
0.000372443910707501
0.00037244390180196
0.000372443893672445
0.000372443886175899
0.000372443879418483
0.000372443873218727
0.000372443867560381
0.00037244386190621
0.000372443853932704
0.000372443824364583
0.000372443607491321
0.000372441746507342
0.000372425419315223
0.00037228180281097
0.000371018713950502
0.000359914823976482
0.000247840199076931
0.000133286320715028
0.000132834657930399
0.000244541929467714
0.000357955598486103
0.000370840076770521
0.000372285860526632
0.00037244936643962
0.000372467826393077
0.000372469899941126
0.000372470124450077
0.000372470141644047
0.000372470135678417
0.000372470118171534
0.000372470096743921
0.000372470079429084
0.000372470062025835
0.000372470044339303
0.000372470026661743
0.000372470008962658
0.000372469991516249
0.000372469974256228
0.000372469957443501
0.00037246994098484
0.00037246992512347
0.000372469909741038
0.000372469895058213
0.000372469880934323
0.000372469867565692
0.000372469854795838
0.000372469842799784
0.000372469831415545
0.000372469820803421
0.000372469810807303
0.000372469801578564
0.000372469792973053
0.000372469785130106
0.000372469777908789
0.000372469771413506
0.000372469765467713
0.000372469760056883
0.00037246975465276
0.000372469746940537
0.000372469717658956
0.000372469501101163
0.000372467640456286
0.000372451313741591
0.000372307700120492
0.00037104464451532
0.000359941148844843
0.000247846951039857
0.000133287578781822
0.00013283486687525
0.00024454297300052
0.000357961530012041
0.000370847991493383
0.000372294491041162
0.000372458199218737
0.000372476707305717
0.00037247879090344
0.00037247901733911
0.000372479034752795
0.000372479029052256
0.000372479012099072
0.000372478991117527
0.000372478974200706
0.000372478957218522
0.00037247893996103
0.000372478922707884
0.000372478905430472
0.000372478888401449
0.000372478871556092
0.000372478855151912
0.000372478839096952
0.000372478823631021
0.0003724788086374
0.000372478794333533
0.000372478780580711
0.000372478767572211
0.000372478755153658
0.000372478743497126
0.000372478732442739
0.00037247872214785
0.00037247871245833
0.000372478703522576
0.000372478695198389
0.00037247868762235
0.00037247868065591
0.00037247867440179
0.000372478668688163
0.000372478663502652
0.000372478658327192
0.000372478650856768
0.000372478621846606
0.000372478405596065
0.000372476545284918
0.000372460218940494
0.000372316606684764
0.000371053567204485
0.000359950265278009
0.000247849246333281
0.000133288026748016
0.000132834932755581
0.000244543290393425
0.000357963470919011
0.000370850640996272
0.0003722974168603
0.000372461208827467
0.000372479738161612
0.000372481826473677
0.000372482053917463
0.00037248207151733
0.000372482066099122
0.000372482049673496
0.000372482029167705
0.00037248201269329
0.000372481996169095
0.000372481979379308
0.000372481962594924
0.000372481945786576
0.000372481929223316
0.000372481912841058
0.000372481896893636
0.000372481881290129
0.000372481866266873
0.000372481851708638
0.000372481837829633
0.00037248182449297
0.000372481811888883
0.000372481799865006
0.000372481788590438
0.000372481777907306
0.000372481767969939
0.000372481758626065
0.000372481750021047
0.000372481742014458
0.000372481734740085
0.000372481728061666
0.000372481722080389
0.000372481716629063
0.000372481711697942
0.000372481706779878
0.000372481699580925
0.000372481670874597
0.000372481454968943
0.000372479595031865
0.000372463269036955
0.000372319657415725
0.000371056624470683
0.000359953406179577
0.000247850017161039
0.000133288183523634
0.000132834951331203
0.000244543375745509
0.000357964095580486
0.000370851515020835
0.000372298395433477
0.000372462221294509
0.000372480759726463
0.000372482850177876
0.000372483078158754
0.000372483095922341
0.000372483090790245
0.000372483074871083
0.000372483054848033
0.000372483038825734
0.000372483022764413
0.000372483006445083
0.000372482990131596
0.000372482973793661
0.0003724829576961
0.000372482941775652
0.000372482926282367
0.000372482911126774
0.000372482896541645
0.000372482882413641
0.000372482868953604
0.00037248285602682
0.000372482843820328
0.000372482832184043
0.00037248282128391
0.000372482810964253
0.00037248280137616
0.000372482792369339
0.000372482784085806
0.000372482776386989
0.000372482769403553
0.000372482763001613
0.000372482757280583
0.000372482752078122
0.000372482747387179
0.000372482742712314
0.000372482735771556
0.000372482707358817
0.000372482491793308
0.000372480632232863
0.000372464306574165
0.000372320695170594
0.000371057664442886
0.000359954479068276
0.000247850269532486
0.000133288238475443
0.000132834952399219
0.000244543379561453
0.000357964279549022
0.000370851785227668
0.000372298704827615
0.000372462544126652
0.000372481086320206
0.000372483177715484
0.0003724834060155
0.000372483423947979
0.000372483419124495
0.000372483403736476
0.000372483384235317
0.000372483368707622
0.000372483353152827
0.000372483337348905
0.00037248332155283
0.000372483305732868
0.000372483290149321
0.000372483274739327
0.000372483259749089
0.000372483245090284
0.000372483230992136
0.000372483217342953
0.000372483204350235
0.000372483191881233
0.000372483180119819
0.000372483168917988
0.000372483158438546
0.000372483148527793
0.000372483139333575
0.000372483130707322
0.000372483122787669
0.00037248311543764
0.000372483108784741
0.00037248310269725
0.000372483097272882
0.00037248309235413
0.000372483087937037
0.000372483083538346
0.000372483076889227
0.000372483048805587
0.000372482833620249
0.000372480974481973
0.000372464649196267
0.000372321037963311
0.0003710580075577
0.000359954833449094
0.000247850340186636
0.000133288255045847
0.000132834948806092
0.00024454336135002
0.00035796432187774
0.000370851855749817
0.000372298789466959
0.000372462633933702
0.000372481177613575
0.000372483269414666
0.000372483497928846
0.000372483516026642
0.000372483511515
0.000372483496656876
0.000372483477683549
0.000372483462653862
0.000372483447606435
0.000372483432316597
0.000372483417034734
0.00037248340172806
0.00037248338665235
0.00037248337174554
0.00037248335724998
0.000372483343078912
0.000372483329457991
0.000372483316277492
0.000372483303741545
0.000372483291719653
0.000372483280392393
0.000372483269614098
0.000372483259544259
0.000372483250031349
0.000372483241219699
0.000372483232962608
0.000372483225395014
0.000372483218381587
0.000372483212046338
0.000372483206259755
0.000372483201117615
0.000372483196467409
0.000372483192308288
0.000372483188169892
0.000372483181797301
0.000372483154030344
0.000372482939217872
0.000372481080503289
0.000372464755603626
0.000372321144452272
0.000371058113804979
0.000359954942688402
0.000247850352591137
0.000133288260053588
0.000132834942161097
0.00024454333214567
0.000357964313363839
0.000370851854327504
0.000372298793049103
0.000372462639418291
0.000372481183620524
0.000372483275592776
0.000372483504282642
0.000372483522558261
0.000372483518375439
0.000372483504069605
0.000372483485658957
0.000372483471164582
0.000372483456663759
0.000372483441928707
0.00037248342720307
0.000372483412452644
0.000372483397928579
0.000372483383569254
0.000372483369613162
0.000372483355974831
0.000372483342876361
0.000372483330209754
0.000372483318175809
0.00037248330664604
0.000372483295797798
0.000372483285487507
0.0003724832758714
0.00037248326679984
0.000372483258413682
0.000372483250567791
0.000372483243393415
0.000372483236756572
0.000372483230777776
0.000372483225329455
0.000372483220505543
0.000372483216158493
0.000372483212290964
0.000372483208445871
0.000372483202383286
0.000372483174968347
0.000372482960568229
0.000372481102322788
0.000372464777859025
0.000372321166910303
0.000371058135835936
0.000359954964691981
0.000247850341443017
0.000133288258694413
0.000132834936205698
0.000244543313525775
0.000357964297623009
0.000370851833891262
0.000372298773120389
0.000372462619959064
0.000372481164266801
0.000372483256297043
0.000372483485127266
0.000372483503561022
0.000372483499680367
0.000372483485901222
0.000372483468046037
0.000372483454080578
0.00037248344011793
0.00037248342592713
0.000372483411745237
0.000372483397537019
0.000372483383549138
0.000372483369720819
0.000372483356286816
0.000372483343163296
0.000372483330568849
0.000372483318397551
0.000372483306846841
0.000372483295790536
0.000372483285402685
0.00037248327554203
0.000372483266361434
0.000372483257713262
0.000372483249734721
0.000372483242282324
0.000372483235483366
0.000372483229205308
0.000372483223564824
0.000372483218436283
0.000372483213911535
0.000372483209848177
0.00037248320625243
0.000372483202681158
0.000372483196910005
0.000372483169831123
0.000372482955832276
0.000372481098054189
0.000372464774046545
0.000372321163307526
0.000371058132159333
0.000359954961133305
0.000247850328224123
0.000133288257253715
0.000132834931275701
0.000244543333942977
0.000357964291670812
0.000370851805921338
0.000372298741955837
0.000372462588329497
0.000372481132475476
0.000372483224478899
0.000372483453401684
0.000372483471944376
0.00037248346830195
0.000372483454999176
0.000372483437707486
0.000372483424294533
0.000372483410896967
0.000372483397278824
0.000372483383670339
0.000372483370034943
0.000372483356614751
0.000372483343349563
0.000372483330470425
0.000372483317894874
0.000372483305838086
0.000372483294195929
0.000372483283162636
0.000372483272614083
0.00037248326272109
0.0003724832533445
0.00037248324463396
0.000372483236443472
0.000372483228906642
0.000372483221881363
0.000372483215491039
0.000372483209604383
0.000372483204334238
0.000372483199556517
0.000372483195361135
0.000372483191610768
0.000372483188315661
0.00037248318504727
0.000372483179597413
0.000372483152886396
0.000372482939324673
0.000372481082056321
0.000372464758562153
0.000372321148266516
0.000371058117704507
0.000359954949428588
0.000247850317915348
0.000133288253509225
0.000132834949492857
0.000244543556233294
0.000357964349972517
0.000370851792407536
0.000372298715374461
0.000372462559517192
0.000372481103097828
0.000372483194907946
0.000372483423761188
0.000372483442208557
0.000372483438539818
0.000372483425456598
0.000372483408645902
0.00037248339574647
0.000372483382877078
0.000372483369792406
0.000372483356715776
0.000372483343609767
0.000372483330712252
0.000372483317964105
0.000372483305592888
0.000372483293518007
0.000372483281951313
0.000372483270790894
0.000372483260227895
0.000372483250140652
0.000372483240696659
0.000372483231759225
0.000372483223474977
0.000372483215699407
0.00037248320856237
0.000372483201923287
0.000372483195901584
0.000372483190367704
0.000372483185430255
0.000372483180966407
0.000372483177063894
0.000372483173590679
0.000372483170561148
0.00037248316756303
0.00037248316240365
0.00037248313603295
0.000372482922886113
0.000372481066115718
0.000372464743158985
0.000372321133454956
0.000371058105179121
0.000359954948791099
0.000247850347696762
0.000133288251995057
0.000132835214372539
0.000244543986557752
0.000357964415498602
0.000370851776774904
0.000372298688189336
0.000372462530619151
0.000372481073867255
0.000372483165640005
0.00037248339461389
0.000372483413223946
0.000372483409863237
0.000372483397306547
0.000372483381039742
0.000372483368624807
0.000372483356242446
0.000372483343648687
0.000372483331060973
0.000372483318441137
0.000372483306023204
0.000372483293749131
0.000372483281843436
0.000372483270227407
0.000372483259109846
0.000372483248391061
0.000372483238259566
0.000372483228596366
0.000372483219565576
0.000372483211033085
0.000372483203143738
0.000372483195753236
0.000372483188987838
0.00037248318270843
0.000372483177030755
0.000372483171828231
0.00037248316720504
0.000372483163038191
0.000372483159413322
0.000372483156203754
0.000372483153428416
0.000372483150695692
0.000372483145825153
0.000372483119797369
0.00037248290707415
0.000372481050819205
0.000372464728442473
0.000372321119713673
0.000371058096512827
0.000359954975001574
0.000247850543910191
0.00013328825969306
0.000132835208542715
0.00024454377140871
0.000357964293105805
0.000370851725172853
0.000372298647667065
0.000372462491752471
0.000372481035306054
0.000372483127305892
0.000372483356686434
0.000372483375820509
0.000372483373210468
0.000372483361579595
0.000372483345975526
0.000372483334135811
0.000372483322333858
0.000372483310326272
0.000372483298324221
0.000372483286288536
0.000372483274448954
0.000372483262748179
0.000372483251407443
0.00037248324034986
0.000372483229780394
0.000372483219601493
0.000372483209998945
0.000372483200857116
0.000372483192335056
0.000372483184301499
0.00037248317690229
0.000372483169989402
0.000372483163684649
0.000372483157850271
0.000372483152597841
0.000372483147808123
0.000372483143579391
0.000372483139784322
0.000372483136505525
0.000372483133622094
0.000372483131156585
0.000372483128727831
0.000372483124180183
0.000372483098526367
0.000372482886254635
0.000372481030532493
0.000372464708678048
0.000372321100195472
0.000371058077610741
0.000359954965338386
0.000247850557530454
0.000133288263286849
0.000132834920866181
0.000244543243423414
0.000357964149841701
0.000370851660286368
0.000372298595018612
0.000372462440821611
0.000372480984609615
0.000372483076780898
0.000372483306483096
0.00037248332601941
0.000372483323982189
0.000372483313143114
0.000372483298283141
0.000372483287139501
0.000372483276046382
0.000372483264758721
0.000372483253480598
0.000372483242170963
0.000372483231054864
0.000372483220074551
0.000372483209448002
0.000372483199099896
0.000372483189229766
0.000372483179741523
0.000372483170818803
0.000372483162351758
0.000372483154489899
0.000372483147104699
0.000372483140354356
0.000372483134074234
0.00037248312838031
0.000372483123136013
0.000372483118447257
0.000372483114189223
0.000372483110457373
0.000372483107132279
0.000372483104294552
0.000372483101828531
0.00037248309976131
0.000372483097725856
0.000372483093587347
0.000372483068390484
0.000372482856649283
0.000372481001520869
0.000372464680107249
0.000372321070730127
0.000371058038741958
0.000359954872298647
0.000247850310105225
0.000133288402913545
0.000132834892157611
0.000244543099071464
0.000357964072825353
0.000370851613132722
0.000372298553805132
0.000372462400537285
0.000372480944413684
0.00037248303666967
0.000372483266592064
0.000372483286407213
0.000372483284794359
0.000372483274594133
0.000372483260373792
0.000372483249827337
0.000372483239340193
0.000372483228665497
0.000372483218000886
0.000372483207304772
0.000372483196798945
0.00037248318642477
0.000372483176399113
0.000372483166650802
0.000372483157370356
0.000372483148463584
0.000372483140114319
0.000372483132230062
0.000372483124937013
0.000372483118106144
0.000372483111875241
0.000372483106100922
0.000372483100895641
0.000372483096123881
0.000372483091886791
0.000372483088058368
0.000372483084730091
0.000372483081785648
0.000372483079303613
0.000372483077173615
0.00037248307542748
0.000372483073713584
0.000372483069916931
0.00037248304511482
0.000372482833849659
0.00037248097928502
0.000372464658430879
0.000372321049240675
0.000371058016283498
0.000359954843758642
0.000247850255580151
0.00013328840106011
0.000132834881941773
0.000244543033450396
0.000357964015399804
0.000370851567937592
0.000372298511903944
0.000372462359166478
0.000372480903058567
0.000372482995375217
0.000372483225496873
0.000372483245568256
0.000372483244350017
0.000372483234759274
0.000372483221168213
0.000372483211215317
0.000372483201333118
0.000372483191271721
0.000372483181222347
0.000372483171143914
0.000372483161258056
0.000372483151500788
0.000372483142092786
0.000372483132974104
0.000372483124313405
0.000372483116017338
0.000372483108261495
0.000372483100940921
0.000372483094198666
0.000372483087907606
0.000372483082197502
0.000372483076931411
0.000372483072218484
0.00037248306792393
0.000372483064144523
0.000372483060753982
0.000372483057839838
0.000372483055287234
0.000372483053172688
0.000372483051391079
0.000372483049979397
0.000372483048602137
0.000372483045164013
0.000372483020775061
0.000372482810006895
0.000372480956030519
0.000372464635771794
0.00037232102699758
0.000371057993955128
0.000359954821082798
0.000247850227473794
0.000133288255493488
0.000132834874607977
0.000244542990501777
0.000357963969849915
0.000370851528539161
0.000372298474213712
0.000372462321762745
0.000372480865638936
0.000372482958002307
0.000372483188304576
0.00037248320861074
0.000372483207757085
0.000372483198738905
0.000372483185745608
0.000372483176357712
0.000372483167052006
0.000372483157574071
0.000372483148108639
0.000372483138619059
0.000372483129337838
0.000372483120181037
0.000372483111355451
0.00037248310279387
0.000372483094680288
0.000372483086923936
0.000372483079696022
0.000372483072889546
0.000372483066649757
0.000372483060851802
0.00037248305562073
0.000372483050822442
0.00037248304656251
0.000372483042706967
0.000372483039348155
0.00037248303635983
0.000372483033825804
0.000372483031631963
0.000372483029852002
0.000372483028386307
0.000372483027277174
0.000372483026206686
0.000372483023098497
0.000372482999095761
0.000372482788799861
0.000372480935391287
0.000372464615720213
0.000372321007303578
0.000371057974459632
0.000359954802851584
0.000247850216161844
0.000133288243647585
0.000132834866376493
0.000244542947643152
0.000357963923226591
0.000370851486795317
0.000372298433999486
0.000372462281769428
0.0003724808256156
0.000372482918026857
0.000372483148513093
0.000372483169063845
0.000372483168581948
0.000372483160140053
0.000372483147756422
0.000372483138959798
0.000372483130265278
0.000372483121408322
0.000372483112565255
0.000372483103692137
0.000372483095001254
0.000372483086430677
0.000372483078181992
0.000372483070186725
0.000372483062630875
0.000372483055425863
0.000372483048739643
0.000372483042465727
0.000372483036747888
0.00037248303146308
0.00037248302673274
0.000372483022424368
0.000372483018639991
0.000372483015246313
0.000372483012331333
0.000372483009768419
0.000372483007639038
0.000372483005828571
0.00037248300440598
0.000372483003277649
0.000372483002491585
0.000372483001751672
0.000372482998998015
0.000372482975406751
0.000372482765609315
0.000372480912794839
0.000372464593733756
0.000372320985783644
0.000371057953143827
0.00035995478314666
0.000247850205636401
0.000133288241289994
0.000132834859407837
0.000244542910754408
0.000357963881169284
0.000370851449090147
0.000372298397412312
0.000372462245356521
0.000372480789179829
0.000372482881640244
0.000372483112303622
0.000372483133101227
0.000372483132987609
0.000372483125107341
0.000372483113321434
0.000372483105070106
0.000372483096922009
0.000372483088618537
0.000372483080329639
0.00037248307200867
0.000372483063859287
0.000372483055826073
0.000372483048107267
0.000372483040635254
0.000372483033594541
0.000372483026898748
0.000372483020712866
0.000372483014932016
0.000372483009697372
0.000372483004887799
0.000372483000621364
0.000372482996767132
0.000372482993423649
0.000372482990458715
0.000372482987955856
0.000372482985786733
0.000372482984034755
0.0003724829825821
0.000372482981485987
0.000372482980660722
0.000372482980159309
0.0003724829797218
0.000372482977295764
0.000372482954090174
0.000372482744766675
0.000372480892524584
0.000372464574061598
0.000372320966500071
0.00037105793419293
0.00035995476611828
0.000247850197751212
0.000133288240075594
0.000132834851698394
0.000244542873718568
0.000357963836524963
0.000370851408788525