/*--------------------------------*- C++ -*----------------------------------*\
  =========                 |
  \\      /  F ield         | OpenFOAM: The Open Source CFD Toolbox
   \\    /   O peration     | Website:  https://openfoam.org
    \\  /    A nd           | Version:  10
     \\/     M anipulation  |
\*---------------------------------------------------------------------------*/
FoamFile
{
    format      ascii;
    class       volScalarField;
    location    "0.4";
    object      nut;
}
// * * * * * * * * * * * * * * * * * * * * * * * * * * * * * * * * * * * * * //

dimensions      [0 2 -1 0 0 0 0];

internalField   nonuniform List<scalar> 
2500
(
7.8615060940002e-10
8.11572247697618e-10
8.15914915510049e-10
8.1630206723266e-10
8.16334850185601e-10
8.16337819790381e-10
8.16338095711722e-10
8.16338121426697e-10
8.1633812410109e-10
8.1633825194934e-10
8.16338270218233e-10
8.16338147823685e-10
8.16338141319291e-10
8.16338133898641e-10
8.1633810382779e-10
8.1633807260824e-10
8.16338062553903e-10
8.16338053508293e-10
8.16338044696197e-10
8.16338035555867e-10
8.16338026692113e-10
8.16338018026189e-10
8.16338009541857e-10
8.16338001028193e-10
8.16337993078265e-10
8.16337985519537e-10
8.16337978177014e-10
8.16337970980617e-10
8.16337964168553e-10
8.1633795778377e-10
8.16337951695009e-10
8.16337945749899e-10
8.16337940349637e-10
8.16337935208807e-10
8.16337930361187e-10
8.16337925789769e-10
8.16337922007199e-10
8.16337918126909e-10
8.16337913694117e-10
8.16337909971967e-10
8.16337905803118e-10
8.16337897800638e-10
8.16337859958668e-10
8.16337587820171e-10
8.1633548987966e-10
8.16319542278103e-10
8.16201678727199e-10
8.15359035720987e-10
8.09498413068763e-10
7.86086829678145e-10
3.95247609001994e-09
1.11753207922854e-08
1.22961810214516e-08
1.23939177302779e-08
1.24014966978621e-08
1.24021395522821e-08
1.24021955085274e-08
1.24022001114608e-08
1.24022005472528e-08
1.24022077581037e-08
1.24022145738947e-08
1.2402214939341e-08
1.24022151443624e-08
1.24022148068766e-08
1.24022055802466e-08
1.24021958316452e-08
1.2402194786691e-08
1.24021940128538e-08
1.24021932563001e-08
1.24021925028298e-08
1.24021917626514e-08
1.24021910321936e-08
1.24021903209196e-08
1.24021896252458e-08
1.24021889543895e-08
1.24021883033265e-08
1.24021876795415e-08
1.24021870770824e-08
1.24021865039778e-08
1.24021859547168e-08
1.24021854351e-08
1.24021849401509e-08
1.24021844763029e-08
1.24021840380487e-08
1.24021836319291e-08
1.24021832602436e-08
1.24021831202642e-08
1.24021828036324e-08
1.24021822988718e-08
1.24021820183975e-08
1.2402181728536e-08
1.24021811511249e-08
1.24021780240533e-08
1.24021528879722e-08
1.24019397283663e-08
1.2400137658677e-08
1.23850591182434e-08
1.22590452250935e-08
1.11459475940781e-08
3.94175041763443e-09
4.14001475714587e-09
6.28774532568942e-08
5.88508120991156e-06
6.03851806962909e-06
6.05166290911725e-06
6.0528185150998e-06
6.05292043832187e-06
6.05292938053276e-06
6.0529304890776e-06
6.05293317369683e-06
6.05293461527711e-06
6.05293459311421e-06
6.05293452133635e-06
6.05293410766981e-06
6.0529305115173e-06
6.05292792354298e-06
6.05292734253909e-06
6.05292690848878e-06
6.05292648344115e-06
6.05292605432516e-06
6.05292562580932e-06
6.05292519679381e-06
6.05292477259964e-06
6.05292435167578e-06
6.05292393907971e-06
6.05292353286761e-06
6.05292313737705e-06
6.05292275028737e-06
6.05292237572688e-06
6.05292201111555e-06
6.05292166019283e-06
6.0529213205385e-06
6.05292099576351e-06
6.05292068365507e-06
6.05292038783074e-06
6.05292010953255e-06
6.05291988991152e-06
6.05291960827087e-06
6.05291935378918e-06
6.05291912066333e-06
6.05291885222064e-06
6.05291818533498e-06
6.05291403732852e-06
6.05287979073866e-06
6.05258723945597e-06
6.05010020088629e-06
6.02923473442006e-06
5.8576318802921e-06
6.29045035576755e-08
4.13671016570211e-09
4.18979762465653e-09
6.79327209172423e-08
6.69108951328973e-06
6.89903811089513e-06
6.91918848548732e-06
6.92112822115058e-06
6.92131232572515e-06
6.92132955867917e-06
6.92133137676899e-06
6.92133295079722e-06
6.92133325620391e-06
6.92133270073744e-06
6.92133245279994e-06
6.92133205175732e-06
6.9213300535574e-06
6.92132893090517e-06
6.92132841400996e-06
6.92132798201576e-06
6.92132755849708e-06
6.92132713251505e-06
6.92132670888777e-06
6.92132628619158e-06
6.9213258699535e-06
6.92132545831238e-06
6.92132505641118e-06
6.92132466191224e-06
6.92132427941285e-06
6.92132390623474e-06
6.92132354652665e-06
6.92132319742597e-06
6.92132286277555e-06
6.92132253981603e-06
6.92132223219963e-06
6.92132193738505e-06
6.92132165887727e-06
6.9213213952364e-06
6.92132116098137e-06
6.92132091772002e-06
6.92132069015753e-06
6.92132047086727e-06
6.92132021102092e-06
6.92131953432687e-06
6.9213152174828e-06
6.92127903634581e-06
6.92096413642751e-06
6.91821715599159e-06
6.8943202247185e-06
6.68729453219993e-06
6.83924418572058e-08
4.1958701352632e-09
4.20486856168253e-09
6.92709942736467e-08
6.96020576072928e-06
7.19514594664056e-06
7.21958502904141e-06
7.22209980958033e-06
7.22235391409649e-06
7.22237912151523e-06
7.2223816130944e-06
7.22238242711877e-06
7.22238220009471e-06
7.22238164452819e-06
7.2223813047613e-06
7.22238092533285e-06
7.22238004860073e-06
7.22237939607572e-06
7.22237894269985e-06
7.22237852854274e-06
7.22237812214817e-06
7.22237771651725e-06
7.22237731659199e-06
7.22237692068338e-06
7.22237653413936e-06
7.22237615483114e-06
7.22237578766657e-06
7.22237543002992e-06
7.22237508632372e-06
7.22237475358057e-06
7.22237443575407e-06
7.22237412973567e-06
7.22237383916753e-06
7.22237356104974e-06
7.22237329883337e-06
7.22237304974611e-06
7.22237281702499e-06
7.22237259826409e-06
7.22237239958265e-06
7.22237220694207e-06
7.22237202695676e-06
7.22237185022975e-06
7.22237162986303e-06
7.22237098520837e-06
7.22236664907928e-06
7.22232991823068e-06
7.22200851537762e-06
7.21918709917798e-06
7.19443595706596e-06
6.97756942762004e-06
7.00074178085855e-08
4.2157143016773e-09
4.20970065602586e-09
6.96384389954096e-08
7.04976077033297e-06
7.29681453686689e-06
7.32352859497446e-06
7.32639746578341e-06
7.32670065292438e-06
7.32673212102455e-06
7.32673526472116e-06
7.3267357535134e-06
7.32673548199967e-06
7.32673499544723e-06
7.3267346147559e-06
7.32673424323828e-06
7.32673371346308e-06
7.32673323549775e-06
7.3267328222122e-06
7.32673242489955e-06
7.32673203427659e-06
7.32673164619297e-06
7.32673126575204e-06
7.32673089113542e-06
7.326730527535e-06
7.32673017265947e-06
7.32672983125043e-06
7.32672950053911e-06
7.32672918475934e-06
7.32672888080686e-06
7.32672859247557e-06
7.32672831652663e-06
7.3267280564546e-06
7.32672780913456e-06
7.32672757787281e-06
7.32672735977679e-06
7.32672715791308e-06
7.32672696952727e-06
7.3267267980519e-06
7.32672663667478e-06
7.32672648693701e-06
7.32672633841946e-06
7.32672614463996e-06
7.32672552359064e-06
7.3267211955501e-06
7.32668432763907e-06
7.32636120232568e-06
7.32352019144001e-06
7.29854634848764e-06
7.0791400464612e-06
7.05000158685066e-08
4.2226386889982e-09
4.21128825865751e-09
6.97434304688487e-08
7.07949021719911e-06
7.33162210913162e-06
7.35943625124338e-06
7.36249980120269e-06
7.36283324158184e-06
7.36286898523175e-06
7.36287264838397e-06
7.36287301788639e-06
7.36287281489888e-06
7.36287240221809e-06
7.36287195570927e-06
7.36287158805883e-06
7.36287116970148e-06
7.36287075899862e-06
7.36287036884229e-06
7.36286998453505e-06
7.36286960614745e-06
7.36286923108715e-06
7.36286886457463e-06
7.36286850473344e-06
7.36286815665137e-06
7.36286781795957e-06
7.3628674932903e-06
7.36286717980546e-06
7.362866881637e-06
7.36286659561694e-06
7.36286632544212e-06
7.3628660678229e-06
7.3628658261594e-06
7.36286559727743e-06
7.36286538439472e-06
7.3628651845717e-06
7.36286500077843e-06
7.36286483014435e-06
7.36286467523096e-06
7.36286453138822e-06
7.36286439874782e-06
7.36286426650723e-06
7.36286408828786e-06
7.36286348172108e-06
7.3628591637353e-06
7.36282227019525e-06
7.36249874794724e-06
7.35965322153428e-06
7.33462854578881e-06
7.11464909754032e-06
7.0655883821668e-08
4.22509348037947e-09
4.21181629892359e-09
6.97745300947228e-08
7.0893428779151e-06
7.34350407508611e-06
7.37181652219691e-06
7.37497883365318e-06
7.37532927193924e-06
7.37536765138685e-06
7.37537167305211e-06
7.3753720079656e-06
7.3753718598053e-06
7.37537146219013e-06
7.37537101258652e-06
7.3753706496686e-06
7.37537026995284e-06
7.3753698871734e-06
7.37536951073885e-06
7.37536913609904e-06
7.37536876692426e-06
7.37536840137201e-06
7.37536804471096e-06
7.37536769505282e-06
7.37536735740876e-06
7.37536702938728e-06
7.37536671554379e-06
7.37536641302401e-06
7.37536612588846e-06
7.37536585095765e-06
7.37536559186091e-06
7.3753653453037e-06
7.37536511462013e-06
7.37536489663296e-06
7.37536469449666e-06
7.3753645052694e-06
7.37536433185745e-06
7.37536417137019e-06
7.37536402607346e-06
7.37536389199477e-06
7.37536376888775e-06
7.37536364588435e-06
7.37536347668409e-06
7.37536287891489e-06
7.37535856866776e-06
7.37532167555015e-06
7.37499808662125e-06
7.37215178398921e-06
7.34711855348699e-06
7.12704507563037e-06
7.07066417635456e-08
4.22596929724036e-09
4.21199306685596e-09
6.9784020485711e-08
7.09260431379791e-06
7.34754870258609e-06
7.37607615826055e-06
7.37928563651017e-06
7.37964497751335e-06
7.37968485895349e-06
7.37968910549605e-06
7.37968943680075e-06
7.37968930572675e-06
7.37968892983287e-06
7.37968848800991e-06
7.37968813127966e-06
7.37968776836957e-06
7.37968740009966e-06
7.3796870337428e-06
7.37968666767808e-06
7.37968630685336e-06
7.37968594975219e-06
7.37968560163735e-06
7.37968526062286e-06
7.37968493165484e-06
7.37968461234106e-06
7.37968430717389e-06
7.37968401330612e-06
7.37968373473987e-06
7.37968346830727e-06
7.37968321758293e-06
7.37968297928757e-06
7.37968275670268e-06
7.37968254666743e-06
7.37968235228517e-06
7.37968217063179e-06
7.37968200456477e-06
7.37968185121068e-06
7.37968171272674e-06
7.37968158538677e-06
7.37968146886431e-06
7.37968135236701e-06
7.37968118970568e-06
7.37968059865119e-06
7.37967629511532e-06
7.37963940785513e-06
7.37931582147091e-06
7.37646951522788e-06
7.35143634591793e-06
7.13136503152018e-06
7.07235091436633e-08
4.22628232980564e-09
4.21205242037132e-09
6.97869833535536e-08
7.09368298372457e-06
7.34892181549513e-06
7.37753861949131e-06
7.38076958695796e-06
7.38113334012336e-06
7.38117402564774e-06
7.38117840328405e-06
7.38117873915262e-06
7.3811786158111e-06
7.38117825648104e-06
7.38117782350359e-06
7.38117747348771e-06
7.38117712060946e-06
7.38117676203214e-06
7.38117640401527e-06
7.38117604575128e-06
7.3811756925887e-06
7.38117534315336e-06
7.38117500266916e-06
7.38117466926779e-06
7.38117434783055e-06
7.38117403598557e-06
7.38117373816337e-06
7.38117345154302e-06
7.38117318006886e-06
7.3811729206032e-06
7.38117267666603e-06
7.38117244500985e-06
7.3811722288623e-06
7.38117202509419e-06
7.38117183675606e-06
7.38117166095552e-06
7.38117150050084e-06
7.38117135255567e-06
7.3811712192229e-06
7.38117109690534e-06
7.38117098528028e-06
7.38117087370024e-06
7.38117071611697e-06
7.38117013052849e-06
7.38116583284805e-06
7.38112895179514e-06
7.3808053763419e-06
7.3779591544564e-06
7.35292699365521e-06
7.13286776414719e-06
7.07291891978773e-08
4.22639418694244e-09
4.21207227067332e-09
6.9787920307663e-08
7.0940392840936e-06
7.34938658291253e-06
7.3780394294954e-06
7.38127982434567e-06
7.3816456679507e-06
7.38168676239377e-06
7.38169121225362e-06
7.38169155356087e-06
7.38169143594187e-06
7.38169108964733e-06
7.38169066569776e-06
7.38169032329812e-06
7.38168997918338e-06
7.38168962948657e-06
7.38168927999459e-06
7.38168893009813e-06
7.38168858522644e-06
7.38168824406108e-06
7.3816879117681e-06
7.38168758649549e-06
7.38168727305924e-06
7.38168696910983e-06
7.38168667901671e-06
7.38168639998847e-06
7.38168613591256e-06
7.38168588368476e-06
7.38168564677086e-06
7.38168542195805e-06
7.38168521242083e-06
7.3816850150633e-06
7.38168483288353e-06
7.38168466302305e-06
7.3816845082418e-06
7.38168436574549e-06
7.38168423760225e-06
7.38168412031248e-06
7.38168401358763e-06
7.38168390695816e-06
7.38168375454828e-06
7.38168317463397e-06
7.38167888320131e-06
7.38164200886525e-06
7.38131844287492e-06
7.37847227816922e-06
7.35344077681835e-06
7.13338936524307e-06
7.0731114990801e-08
4.22643401562561e-09
4.21207882981268e-09
6.97882170108963e-08
7.09415672422739e-06
7.34954332240634e-06
7.37821035424385e-06
7.38145475756435e-06
7.38182155508279e-06
7.38186284869004e-06
7.38186733673147e-06
7.38186768238984e-06
7.38186757002055e-06
7.38186723469477e-06
7.38186681958032e-06
7.38186648506297e-06
7.38186614928685e-06
7.38186580808631e-06
7.38186546699864e-06
7.38186512545187e-06
7.38186478884473e-06
7.3818644558898e-06
7.3818641316859e-06
7.38186381440625e-06
7.38186350879919e-06
7.38186321254762e-06
7.38186292995708e-06
7.38186265827512e-06
7.38186240132882e-06
7.38186215605573e-06
7.3818619258632e-06
7.38186170758028e-06
7.38186150432303e-06
7.38186131303486e-06
7.38186113665479e-06
7.38186097236313e-06
7.38186082286516e-06
7.38186068541394e-06
7.38186056204417e-06
7.38186044934974e-06
7.38186034708474e-06
7.38186024498159e-06
7.38186009735859e-06
7.38185952281835e-06
7.38185523747021e-06
7.38181836974421e-06
7.38149481109294e-06
7.37864867348769e-06
7.35361749209692e-06
7.13356992368187e-06
7.07317689068076e-08
4.2264481536496e-09
4.21208085213933e-09
6.9788306483827e-08
7.09419507716331e-06
7.34959571439761e-06
7.3782682218742e-06
7.38151428570248e-06
7.38188150429474e-06
7.38192289132922e-06
7.38192739934689e-06
7.38192774869155e-06
7.38192764191331e-06
7.38192731703782e-06
7.38192691134638e-06
7.38192658559056e-06
7.38192625888436e-06
7.38192592694587e-06
7.38192559514084e-06
7.38192526288244e-06
7.38192493549802e-06
7.38192461171283e-06
7.38192429655289e-06
7.38192398821199e-06
7.38192369136968e-06
7.38192340373839e-06
7.38192312955963e-06
7.38192286611698e-06
7.38192261717732e-06
7.38192237971798e-06
7.38192215708744e-06
7.38192194615438e-06
7.38192174997502e-06
7.38192156552954e-06
7.38192139569688e-06
7.38192123769242e-06
7.38192109416613e-06
7.38192096241637e-06
7.38192084444747e-06
7.3819207369452e-06
7.38192063971581e-06
7.38192054270802e-06
7.38192040045953e-06
7.38191983193541e-06
7.38191555341729e-06
7.38187869310043e-06
7.38155514137655e-06
7.37870901638704e-06
7.35367796490665e-06
7.13363205748752e-06
7.07319877645004e-08
4.22645305782456e-09
4.21208137444222e-09
6.97883297363758e-08
7.09420734446722e-06
7.34961291958654e-06
7.37828749857538e-06
7.3815342340674e-06
7.3819016329548e-06
7.38194306238456e-06
7.38194758104341e-06
7.38194793362892e-06
7.38194783251632e-06
7.38194751767271e-06
7.38194712154237e-06
7.38194680474014e-06
7.3819464872002e-06
7.38194616457782e-06
7.38194584209728e-06
7.38194551915347e-06
7.38194520098996e-06
7.38194488634847e-06
7.38194458018002e-06
7.3819442807072e-06
7.38194399253898e-06
7.38194371342529e-06
7.38194344754092e-06
7.38194319221265e-06
7.38194295114397e-06
7.38194272135751e-06
7.38194250613923e-06
7.38194230240138e-06
7.38194211313594e-06
7.38194193536241e-06
7.38194177189335e-06
7.38194161998092e-06
7.38194148221325e-06
7.3819413559358e-06
7.38194124311774e-06
7.38194114054099e-06
7.38194104806514e-06
7.38194095587101e-06
7.38194081873358e-06
7.38194025602219e-06
7.38193598423979e-06
7.38189913138255e-06
7.38157558632216e-06
7.37872946568705e-06
7.35369845854367e-06
7.13365320696087e-06
7.07320586637886e-08
4.22645473320021e-09
4.2120813416088e-09
6.97883297202773e-08
7.09421087805905e-06
7.34961815822356e-06
7.37829351338067e-06
7.3815405151378e-06
7.38190798856611e-06
7.38194943669863e-06
7.38195396167898e-06
7.38195431760758e-06
7.38195422260622e-06
7.38195391828328e-06
7.38195353248954e-06
7.3819532254825e-06
7.38195291797352e-06
7.38195260555767e-06
7.38195229332298e-06
7.38195198063585e-06
7.38195167265034e-06
7.38195136811607e-06
7.38195107190795e-06
7.38195078227129e-06
7.38195050374486e-06
7.38195023411124e-06
7.38194997747904e-06
7.38194973121398e-06
7.38194949895684e-06
7.38194927777151e-06
7.38194907088172e-06
7.38194887523895e-06
7.38194869377093e-06
7.38194852353126e-06
7.38194836726557e-06
7.38194822225766e-06
7.38194809103303e-06
7.38194797097998e-06
7.38194786403408e-06
7.38194776707299e-06
7.38194768001767e-06
7.38194759329034e-06
7.38194746192643e-06
7.38194690573122e-06
7.38194264147743e-06
7.38190579698198e-06
7.38158225931368e-06
7.37873614210037e-06
7.35370514173354e-06
7.13366011691196e-06
7.07320777043637e-08
4.2264551915383e-09
4.21208116099426e-09
6.97883234182959e-08
7.09421160463773e-06
7.34961943950342e-06
7.37829507398414e-06
7.38154217810382e-06
7.38190968098095e-06
7.38195113715283e-06
7.38195566637406e-06
7.38195602557463e-06
7.3819559367483e-06
7.38195564292096e-06
7.3819552675812e-06
7.38195497043649e-06
7.38195467297476e-06
7.38195437073881e-06
7.38195406868617e-06
7.38195376616243e-06
7.38195346823203e-06
7.38195317366048e-06
7.38195288724635e-06
7.38195260726608e-06
7.38195233818767e-06
7.38195207783278e-06
7.38195183024325e-06
7.38195159282946e-06
7.38195136916694e-06
7.38195115636592e-06
7.38195095758448e-06
7.38195076981714e-06
7.38195059592205e-06
7.38195043298981e-06
7.38195028369285e-06
7.38195014534755e-06
7.38195002041017e-06
7.38194990631285e-06
7.38194980495269e-06
7.38194971330646e-06
7.38194963135666e-06
7.38194954978112e-06
7.38194942389097e-06
7.38194887396555e-06
7.38194461709533e-06
7.38190778099158e-06
7.38158425097377e-06
7.37873813541796e-06
7.35370713065426e-06
7.13366216861765e-06
7.07320801217272e-08
4.22645528324544e-09
4.21208088362672e-09
6.978831397945e-08
7.09421132363924e-06
7.34961929500652e-06
7.37829502821281e-06
7.38154216998331e-06
7.38190968320515e-06
7.38195114276585e-06
7.38195567546523e-06
7.3819560381854e-06
7.38195595587025e-06
7.38195567298207e-06
7.38195530878663e-06
7.38195502224319e-06
7.38195473560595e-06
7.38195444435616e-06
7.38195415331781e-06
7.3819538618085e-06
7.38195357480102e-06
7.38195329106974e-06
7.38195301533686e-06
7.38195274590437e-06
7.38195248716984e-06
7.38195223698922e-06
7.38195199933832e-06
7.38195177166749e-06
7.38195155748831e-06
7.38195135395248e-06
7.38195116415354e-06
7.38195098512351e-06
7.38195081965164e-06
7.3819506648596e-06
7.38195052334669e-06
7.38195039245603e-06
7.38195027457459e-06
7.38195016717295e-06
7.3819500721117e-06
7.38194998646589e-06
7.38194991028762e-06
7.38194983451775e-06
7.38194971476453e-06
7.38194917180891e-06
7.38194492310458e-06
7.38190809629298e-06
7.38158457491347e-06
7.37873846341353e-06
7.35370745057855e-06
7.13366249148692e-06
7.07320758177817e-08
4.22645517307427e-09
4.21208062814264e-09
6.97883075615007e-08
7.0942108994445e-06
7.34961877371717e-06
7.378294516528e-06
7.38154166755058e-06
7.38190918285568e-06
7.38195064356221e-06
7.3819551790394e-06
7.38195554488882e-06
7.38195546855644e-06
7.38195519609978e-06
7.38195484290537e-06
7.38195456683616e-06
7.38195429085605e-06
7.38195401038335e-06
7.38195373011157e-06
7.38195344933809e-06
7.38195317294674e-06
7.38195289972882e-06
7.38195263433243e-06
7.38195237509206e-06
7.38195212633586e-06
7.38195188596083e-06
7.38195165787632e-06
7.38195143957828e-06
7.38195123451293e-06
7.38195103987791e-06
7.38195085870003e-06
7.38195068805101e-06
7.38195053064778e-06
7.38195038364473e-06
7.38195024956278e-06
7.38195012577372e-06
7.38195001458839e-06
7.38194991351585e-06
7.38194982437538e-06
7.38194974434403e-06
7.3819496735444e-06
7.38194960319385e-06
7.38194948920921e-06
7.38194895290682e-06
7.38194471214847e-06
7.38190789459337e-06
7.38158438225267e-06
7.37873827494852e-06
7.35370726104279e-06
7.13366230777509e-06
7.07320709230426e-08
4.22645506032771e-09
4.21208040518836e-09
6.97883122842959e-08
7.09421066926869e-06
7.34961810315036e-06
7.37829378219567e-06
7.3815409239501e-06
7.3819084360417e-06
7.38194989621315e-06
7.38195443352075e-06
7.38195480152419e-06
7.38195472990721e-06
7.38195446688463e-06
7.38195412485016e-06
7.38195385972244e-06
7.38195359493244e-06
7.38195332579946e-06
7.38195305688187e-06
7.38195278745059e-06
7.3819525222995e-06
7.38195226023123e-06
7.38195200582055e-06
7.38195175742916e-06
7.38195151931752e-06
7.38195128941829e-06
7.38195107157726e-06
7.38195086333122e-06
7.38195066806247e-06
7.38195048301027e-06
7.38195031113777e-06
7.3819501495491e-06
7.38195000088991e-06
7.38194986234189e-06
7.38194973634894e-06
7.38194962030762e-06
7.38194951645284e-06
7.38194942232431e-06
7.38194933970294e-06
7.38194926586643e-06
7.38194920101713e-06
7.38194913666157e-06
7.38194902903713e-06
7.38194850001813e-06
7.38194426791609e-06
7.38190746045719e-06
7.38158395829178e-06
7.37873785981434e-06
7.35370685791787e-06
7.13366196263867e-06
7.07320668589508e-08
4.22645487453941e-09
4.212080916223e-09
6.97883746182945e-08
7.0942117125115e-06
7.34961771910024e-06
7.37829313871597e-06
7.38154023620491e-06
7.38190773708456e-06
7.38194919342135e-06
7.38195372934659e-06
7.38195409545579e-06
7.3819540233113e-06
7.38195376463299e-06
7.38195343212325e-06
7.38195317716413e-06
7.38195292283256e-06
7.38195266426246e-06
7.38195240587533e-06
7.38195214692519e-06
7.38195189212198e-06
7.38195164028974e-06
7.38195139593416e-06
7.38195115745406e-06
7.3819509290441e-06
7.38195070868091e-06
7.38195050014919e-06
7.3819503010345e-06
7.38195011465325e-06
7.3819499382936e-06
7.38194977485889e-06
7.38194962148279e-06
7.38194948073661e-06
7.38194934983242e-06
7.38194923113523e-06
7.3819491220759e-06
7.38194902480544e-06
7.38194893688848e-06
7.38194886006269e-06
7.38194879171054e-06
7.38194873211646e-06
7.38194867310947e-06
7.38194857123424e-06
7.38194804895247e-06
7.38194382506585e-06
7.38190702746956e-06
7.38158353595411e-06
7.37873744924079e-06
7.35370649304414e-06
7.13366183684747e-06
7.0732074236007e-08
4.22645475947964e-09
4.21208924872299e-09
6.97884963217093e-08
7.09421289894707e-06
7.34961729307784e-06
7.37829248329019e-06
7.38153954677968e-06
7.38190704106117e-06
7.38194849665358e-06
7.38195303496546e-06
7.3819534042936e-06
7.3819533382475e-06
7.38195308999698e-06
7.38195276825827e-06
7.38195252289241e-06
7.3819522782037e-06
7.38195202935284e-06
7.38195178064492e-06
7.38195153131931e-06
7.38195128600973e-06
7.38195104356171e-06
7.38195080842073e-06
7.38195057902296e-06
7.38195035950264e-06
7.38195014788051e-06
7.38194994788911e-06
7.38194975716697e-06
7.38194957896355e-06
7.38194941061821e-06
7.38194925499892e-06
7.38194910924361e-06
7.3819489758523e-06
7.38194885206611e-06
7.38194874017706e-06
7.38194863767502e-06
7.38194854662331e-06
7.3819484645833e-06
7.38194839325116e-06
7.38194833011556e-06
7.38194827555092e-06
7.38194822179563e-06
7.38194812563704e-06
7.38194761014385e-06
7.38194339464554e-06
7.38190660725834e-06
7.38158312723628e-06
7.37873705988964e-06
7.35370620466193e-06
7.13366224314562e-06
7.0732129109903e-08
4.22645493653641e-09
4.21208899726811e-09
6.97884338186282e-08
7.09421036118149e-06
7.34961615422071e-06
7.37829156356075e-06
7.38153865980848e-06
7.38190616013595e-06
7.38194762022489e-06
7.38195216659159e-06
7.38195254629948e-06
7.38195249512395e-06
7.38195226521422e-06
7.38195195660172e-06
7.38195172262693e-06
7.38195148943146e-06
7.3819512521876e-06
7.38195101507611e-06
7.3819507773166e-06
7.38195054345787e-06
7.38195031236036e-06
7.38195008840447e-06
7.38194987006259e-06
7.38194966139301e-06
7.38194946045888e-06
7.38194927093879e-06
7.38194909053789e-06
7.38194892240529e-06
7.3819487639368e-06
7.38194861802023e-06
7.3819484817196e-06
7.38194835744694e-06
7.38194824247017e-06
7.3819481389987e-06
7.38194804466799e-06
7.38194796142428e-06
7.3819478867431e-06
7.38194782226059e-06
7.38194776557983e-06
7.3819477171471e-06
7.38194766940789e-06
7.38194757964062e-06
7.38194707155125e-06
7.38194286499341e-06
7.38190608815911e-06
7.38158261848655e-06
7.37873655605883e-06
7.35370571343311e-06
7.1336619385001e-06
7.07321318750396e-08
4.22645498345638e-09
4.2120798087057e-09
6.97882820377677e-08
7.09420740979524e-06
7.34961475210141e-06
7.37829040352357e-06
7.38153753375821e-06
7.38190503872334e-06
7.381946502206e-06
7.38195105494286e-06
7.38195144261696e-06
7.38195140278724e-06
7.3819511885622e-06
7.38195089468817e-06
7.38195067449945e-06
7.3819504553423e-06
7.38195023235601e-06
7.38195000958097e-06
7.38194978619962e-06
7.38194956666788e-06
7.38194934983727e-06
7.38194914002376e-06
7.38194893573083e-06
7.38194874090917e-06
7.38194855365098e-06
7.38194837759222e-06
7.38194821055279e-06
7.38194805549277e-06
7.3819479098623e-06
7.38194777679398e-06
7.38194765302276e-06
7.38194754084499e-06
7.38194743755215e-06
7.38194734524155e-06
7.38194726143801e-06
7.38194718803202e-06
7.38194712265561e-06
7.38194706690531e-06
7.38194701848814e-06
7.38194697794031e-06
7.38194693798741e-06
7.38194685632062e-06
7.38194635727959e-06
7.38194216122864e-06
7.38190539615456e-06
7.38158193521694e-06
7.37873585510008e-06
7.35370482650663e-06
7.13365998148714e-06
7.07320601425087e-08
4.2264593438656e-09
4.21207883179647e-09
6.97882397390952e-08
7.09420577132743e-06
7.34961370142206e-06
7.37828947011391e-06
7.38153661870994e-06
7.38190412541868e-06
7.38194559057592e-06
7.3819501476721e-06
7.38195054086666e-06
7.38195050944063e-06
7.38195030786899e-06
7.3819500266631e-06
7.38194981830057e-06
7.38194961114316e-06
7.38194940029459e-06
7.38194918966771e-06
7.38194897843429e-06
7.38194877098583e-06
7.38194856615634e-06
7.38194836823981e-06
7.38194817582204e-06
7.38194799267511e-06
7.38194781692887e-06
7.38194765222326e-06
7.38194749672202e-06
7.3819473529233e-06
7.38194721826731e-06
7.38194709548221e-06
7.38194698172412e-06
7.38194687921964e-06
7.38194678528116e-06
7.38194670191154e-06
7.38194662661217e-06
7.38194656119463e-06
7.38194650335266e-06
7.38194645464246e-06
7.38194641287586e-06
7.38194637868287e-06
7.38194634509441e-06
7.3819462701946e-06
7.38194577896912e-06
7.38194159234507e-06
7.38190483843751e-06
7.38158138858627e-06
7.3787353122129e-06
7.35370426480694e-06
7.13365930274664e-06
7.07320434602778e-08
4.22645921806465e-09
4.21207844127778e-09
6.97882199088481e-08
7.09420452111772e-06
7.34961268956066e-06
7.3782885230787e-06
7.38153568213313e-06
7.38190318914451e-06
7.38194465549982e-06
7.38194921654038e-06
7.38194961480745e-06
7.38194959119542e-06
7.38194940169516e-06
7.38194913295219e-06
7.38194893634391e-06
7.38194874116581e-06
7.38194854246157e-06
7.38194834401697e-06
7.38194814501391e-06
7.38194794984084e-06
7.38194775722584e-06
7.38194757153851e-06
7.38194739158709e-06
7.38194722071064e-06
7.38194705705567e-06
7.38194690409888e-06
7.38194675975716e-06
7.38194662686265e-06
7.38194650289329e-06
7.38194639041828e-06
7.38194628672136e-06
7.38194619396366e-06
7.38194610947201e-06
7.3819460351626e-06
7.38194596853128e-06
7.38194591131139e-06
7.38194586122556e-06
7.38194581978922e-06
7.38194578491823e-06
7.38194575734493e-06
7.38194573041967e-06
7.38194566261724e-06
7.38194517957207e-06
7.38194100279014e-06
7.38190426053435e-06
7.38158082248169e-06
7.37873475439152e-06
7.35370370568698e-06
7.13365874022487e-06
7.07320343174924e-08
4.22645453524442e-09
4.21207814214578e-09
6.97882065489069e-08
7.09420350626145e-06
7.3496117925785e-06
7.37828765949611e-06
7.38153482417553e-06
7.38190233086349e-06
7.38194379814051e-06
7.38194836275581e-06
7.38194876567021e-06
7.38194874927696e-06
7.38194857111643e-06
7.38194831421176e-06
7.38194812879176e-06
7.38194794502908e-06
7.38194775787785e-06
7.38194757099532e-06
7.3819473836513e-06
7.3819472004498e-06
7.38194701972351e-06
7.38194684556697e-06
7.38194667664455e-06
7.38194651659918e-06
7.38194636362862e-06
7.3819462211227e-06
7.38194608695782e-06
7.38194596400972e-06
7.38194584980146e-06
7.38194574680877e-06
7.38194565237186e-06
7.38194556858095e-06
7.38194549277918e-06
7.38194542679495e-06
7.38194536812483e-06
7.38194531842851e-06
7.38194527544332e-06
7.38194524062872e-06
7.38194521200973e-06
7.38194519042384e-06
7.38194516956996e-06
7.38194510829818e-06
7.38194463289933e-06
7.38194046546945e-06
7.38190373445992e-06
7.38158030805189e-06
7.37873424708735e-06
7.35370320270827e-06
7.13365826578643e-06
7.07320299675193e-08
4.22645409259155e-09
4.2120778145465e-09
6.97881932146097e-08
7.09420247012772e-06
7.34961084911032e-06
7.37828674588825e-06
7.38153391489272e-06
7.38190142097736e-06
7.38194288919912e-06
7.38194745745563e-06
7.38194786521165e-06
7.38194785617942e-06
7.38194768943232e-06
7.38194744460187e-06
7.38194727089085e-06
7.38194709923118e-06
7.38194692437653e-06
7.38194674981759e-06
7.38194657467982e-06
7.38194640316654e-06
7.38194623404671e-06
7.38194607131172e-06
7.38194591360097e-06
7.38194576459711e-06
7.38194562254138e-06
7.38194549075915e-06
7.38194536713703e-06
7.38194525452158e-06
7.3819451504716e-06
7.38194505739137e-06
7.38194497265276e-06
7.38194489827576e-06
7.38194483161685e-06
7.38194477441834e-06
7.38194472416915e-06
7.38194468248251e-06
7.38194464708573e-06
7.38194461934446e-06
7.3819445974026e-06
7.38194458221083e-06
7.38194456790005e-06
7.38194451364642e-06
7.38194404639446e-06
7.38193988883581e-06
7.3819031695937e-06
7.38157975527307e-06
7.37873370359321e-06
7.35370266365106e-06
7.13365776213861e-06
7.0732025841971e-08
4.22645395080248e-09
4.21207752698567e-09
6.97881815839303e-08
7.09420152447595e-06
7.34960998567275e-06
7.3782859041533e-06
7.3815330765584e-06
7.38190058218145e-06
7.38194205137317e-06
7.3819466231356e-06
7.38194703577816e-06
7.38194703403798e-06
7.3819468784139e-06
7.38194664542105e-06
7.3819464825079e-06
7.38194632166784e-06
7.38194615777221e-06
7.38194599418544e-06
7.38194582997944e-06
7.38194566918661e-06
7.38194551070502e-06
7.38194535845978e-06
7.38194521110739e-06
7.38194507230097e-06
7.38194494032543e-06
7.3819448184474e-06
7.38194470458547e-06
7.38194460153466e-06
7.38194450689175e-06
7.38194442299421e-06
7.38194434724498e-06
7.38194428159505e-06
7.38194422342267e-06
7.38194417438152e-06
7.38194413192671e-06
7.38194409770993e-06
7.38194406939503e-06
7.38194404811496e-06
7.38194403217058e-06
7.38194402261158e-06
7.38194401428569e-06
7.38194396651695e-06
7.38194350690063e-06
7.3819393587272e-06
7.38190265082224e-06
7.38157924835331e-06
7.37873320441359e-06
7.35370217145599e-06
7.13365731152916e-06
7.07320224698444e-08
4.2264538452597e-09
4.21207721592839e-09
6.97881699111606e-08
7.09420052754287e-06
7.34960907076634e-06