/*--------------------------------*- C++ -*----------------------------------*\
  =========                 |
  \\      /  F ield         | OpenFOAM: The Open Source CFD Toolbox
   \\    /   O peration     | Website:  https://openfoam.org
    \\  /    A nd           | Version:  10
     \\/     M anipulation  |
\*---------------------------------------------------------------------------*/
FoamFile
{
    format      ascii;
    class       volScalarField;
    location    "0.4";
    object      omega;
}
// * * * * * * * * * * * * * * * * * * * * * * * * * * * * * * * * * * * * * //

dimensions      [0 0 -1 0 0 0 0];

internalField   nonuniform List<scalar> 
2500
(
128100.466221492
128271.161500836
128269.292331734
128269.232639752
128269.230102939
128269.22946043
128269.229126345
128269.228703962
128269.228239261
128269.228038391
128269.227692406
128269.227455009
128269.227304679
128269.227104369
128269.226921417
128269.22670814
128269.226601852
128269.226448286
128269.226287594
128269.226190514
128269.226089382
128269.225983484
128269.22590242
128269.225863004
128269.225797349
128269.225714702
128269.22566446
128269.225640665
128269.22562575
128269.225593218
128269.225582787
128269.225601023
128269.225602285
128269.2256145
128269.225650153
128269.22569857
128269.225768932
128269.22582391
128269.225935271
128269.226043402
128269.226180436
128269.226334174
128269.226517146
128269.226659839
128269.227013451
128269.227327284
128269.230345689
128269.304826556
128271.228380049
128100.503990724
31603.3059725286
14042.7523817869
14041.4824975977
14041.4387211784
14041.4373181231
14041.4372666899
14041.4372622273
14041.4372589971
14041.4372557361
14041.4372536031
14041.4372508528
14041.4372483057
14041.4372461751
14041.4372441479
14041.4372417041
14041.4372385661
14041.4372358678
14041.4372330905
14041.4372306773
14041.4372286626
14041.4372264442
14041.4372243939
14041.437222922
14041.4372212475
14041.4372192437
14041.4372168382
14041.4372147516
14041.4372133387
14041.4372118956
14041.4372099591
14041.4372085338
14041.4372069849
14041.4372053957
14041.4372040599
14041.4372030514
14041.4372025464
14041.4372020497
14041.4372014536
14041.4372006207
14041.4372001152
14041.4372004012
14041.4372007329
14041.437201038
14041.437201432
14041.4372056551
14041.4372659314
14041.4387941916
14041.4822850739
14042.7612610481
31604.1450461523
31548.5877101783
3505.17283222894
50.4732445666578
50.4730977720531
50.4730924483975
50.4730922457873
50.4730922345303
50.4730922301736
50.4730922256666
50.4730922211803
50.4730922164719
50.4730922111861
50.4730922059393
50.4730922006265
50.473092194685
50.4730921881672
50.4730921817238
50.4730921751055
50.4730921682452
50.4730921617572
50.4730921551419
50.4730921483554
50.4730921420188
50.473092135948
50.4730921297858
50.4730921229747
50.4730921166397
50.4730921107048
50.4730921046402
50.4730920987936
50.4730920933262
50.4730920881583
50.4730920830666
50.4730920781309
50.4730920738718
50.4730920695608
50.4730920656653
50.4730920619843
50.4730920583767
50.4730920553442
50.4730920527419
50.4730920503657
50.4730920482455
50.4730920467184
50.4730920526011
50.4730922170746
50.4730967315458
50.4732271447123
3505.17105702525
31549.0036104911
31538.658774891
3504.24481385487
50.4609808653417
50.4609435704015
50.460941762917
50.4609416792084
50.4609416729594
50.4609416696615
50.4609416660684
50.4609416621272
50.460941657814
50.4609416530339
50.4609416480157
50.4609416427526
50.460941637145
50.460941631211
50.4609416251124
50.4609416188974
50.4609416125334
50.4609416062131
50.4609415997982
50.4609415932579
50.4609415867738
50.460941580414
50.4609415740869
50.4609415677894
50.4609415616205
50.460941555543
50.4609415496439
50.4609415439169
50.4609415383998
50.4609415331054
50.4609415279862
50.4609415231406
50.4609415185681
50.4609415141287
50.4609415100058
50.4609415061218
50.460941502487
50.4609414991471
50.4609414960932
50.4609414933275
50.4609414908132
50.4609414886519
50.4609414883347
50.4609415262724
50.4609426741109
50.4609778963253
3504.24420953125
31538.7759251942
31536.9745085981
3504.0982547905
50.4589978143034
50.45899024557
50.4589897873438
50.4589897609039
50.4589897571363
50.4589897540607
50.4589897505952
50.4589897467127
50.4589897424322
50.4589897377763
50.4589897327986
50.458989727518
50.4589897219607
50.4589897161513
50.45898971016
50.4589897040145
50.4589896977353
50.4589896913996
50.4589896849928
50.4589896785458
50.4589896721117
50.4589896657143
50.4589896593889
50.4589896531437
50.4589896469897
50.4589896409702
50.4589896351109
50.4589896294064
50.4589896238958
50.4589896185873
50.4589896134805
50.4589896086114
50.4589896039795
50.4589895995754
50.4589895954315
50.4589895915422
50.4589895879093
50.4589895845362
50.4589895814416
50.458989578617
50.4589895760604
50.4589895737994
50.4589895721442
50.4589895787669
50.45898982133
50.4589973420403
3504.09807322824
31537.000922527
31536.7008791858
3504.07603662693
50.4586927714276
50.4586913878683
50.4586912870669
50.458691278893
50.4586912760142
50.4586912729998
50.4586912695579
50.458691265694
50.4586912614316
50.4586912567994
50.4586912518348
50.4586912465681
50.4586912410348
50.4586912352687
50.4586912293103
50.4586912231946
50.4586912169551
50.4586912106316
50.4586912042479
50.4586911978367
50.4586911914326
50.4586911850625
50.4586911787516
50.4586911725255
50.4586911664064
50.4586911604156
50.4586911545752
50.4586911489025
50.4586911434155
50.4586911381247
50.4586911330447
50.4586911281906
50.4586911235711
50.4586911191907
50.4586911150595
50.4586911111836
50.4586911075657
50.4586911042102
50.458691101121
50.4586910982999
50.4586910957518
50.4586910934859
50.4586910915677
50.4586910914491
50.4586911361808
50.4586925605404
3504.07598042129
31536.7060835963
31536.6580362691
3504.07279507822
50.4586479484025
50.4586477096481
50.4586476884129
50.4586476849794
50.4586476823621
50.4586476793686
50.4586476759381
50.4586476720868
50.4586476678398
50.4586476632264
50.4586476582803
50.458647653035
50.4586476475259
50.4586476417882
50.4586476358589
50.4586476297724
50.4586476235634
50.4586476172665
50.458647610913
50.4586476045342
50.4586475981607
50.4586475918203
50.4586475855397
50.4586475793433
50.4586475732547
50.458647567295
50.4586475614844
50.458647555841
50.458647550381
50.4586475451185
50.4586475400673
50.4586475352387
50.4586475306427
50.4586475262874
50.4586475221802
50.4586475183266
50.4586475147308
50.4586475113962
50.4586475083259
50.458647505523
50.4586475029921
50.4586475007403
50.4586474987869
50.4586474973934
50.4586475041259
50.4586477538655
3504.07277168537
31536.6589048286
31536.6518250616
3504.07237138361
50.4586421013688
50.4586420609948
50.4586420557498
50.4586420534016
50.4586420508538
50.4586420478712
50.4586420444515
50.458642040614
50.458642036384
50.4586420317912
50.4586420268678
50.4586420216478
50.4586420161664
50.4586420104587
50.4586420045605
50.4586419985066
50.4586419923313
50.4586419860682
50.4586419797496
50.4586419734062
50.4586419670681
50.458641960763
50.4586419545176
50.4586419483565
50.4586419423028
50.4586419363779
50.4586419306015
50.4586419249913
50.4586419195639
50.4586419143335
50.4586419093135
50.4586419045152
50.4586418999486
50.4586418956221
50.4586418915426
50.4586418877157
50.4586418841457
50.458641880836
50.4586418777895
50.4586418750091
50.4586418724996
50.4586418702675
50.4586418683239
50.4586418667194
50.4586418667175
50.4586419075798
3504.0723557561
31536.6518777894
31536.6513025786
3504.07235822262
50.4586419503001
50.4586419428861
50.4586419406442
50.458641938525
50.458641935997
50.4586419330235
50.4586419296158
50.458641925794
50.4586419215837
50.4586419170139
50.4586419121167
50.4586419069257
50.4586419014756
50.4586418958015
50.4586418899386
50.4586418839214
50.4586418777841
50.4586418715596
50.4586418652804
50.4586418589769
50.4586418526788
50.4586418464138
50.4586418402084
50.458641834087
50.4586418280728
50.4586418221868
50.4586418164487
50.4586418108762
50.4586418054856
50.4586418002914
50.4586417953065
50.4586417905425
50.4586417860092
50.4586417817149
50.4586417776667
50.4586417738699
50.4586417703291
50.4586417670474
50.4586417640278
50.4586417612732
50.458641758788
50.4586417565789
50.4586417546551
50.4586417530318
50.4586417519117
50.458641757601
3504.07234433708
31536.6512107057
31536.6516489378
3504.07240404386
50.4586426163786
50.4586426142807
50.4586426125752
50.4586426105026
50.4586426079832
50.4586426050193
50.4586426016253
50.4586425978215
50.4586425936333
50.4586425890894
50.4586425842215
50.4586425790629
50.458642573648
50.4586425680112
50.4586425621876
50.4586425562112
50.458642550116
50.4586425439347
50.4586425376992
50.4586425314399
50.4586425251863
50.4586425189658
50.4586425128048
50.4586425067276
50.4586425007571
50.4586424949143
50.4586424892186
50.4586424836879
50.4586424783381
50.4586424731838
50.4586424682379
50.4586424635117
50.4586424590152
50.4586424547567
50.458642450743
50.4586424469797
50.4586424434711
50.4586424402205
50.4586424372307
50.4586424345047
50.4586424320468
50.4586424298632
50.458642427963
50.4586424263553
50.4586424250712
50.4586424250798
3504.07239058764
31536.6515330774
31536.6521261434
3504.07245823691
50.4586433978056
50.4586433965429
50.4586433949287
50.4586433928667
50.4586433903542
50.4586433874009
50.4586433840223
50.4586433802386
50.4586433760748
50.4586433715597
50.4586433667243
50.4586433616014
50.4586433562251
50.4586433506295
50.4586433448491
50.4586433389176
50.4586433328686
50.4586433267346
50.4586433205471
50.4586433143363
50.4586433081315
50.4586433019598
50.4586432958475
50.4586432898186
50.4586432838959
50.4586432781003
50.4586432724512
50.458643266966
50.458643261661
50.4586432565504
50.4586432516471
50.4586432469623
50.458643242506
50.4586432382865
50.4586432343106
50.4586432305838
50.4586432271104
50.4586432238938
50.4586432209368
50.4586432182421
50.458643215814
50.4586432136587
50.4586432117846
50.4586432102
50.458643208909
50.4586432080423
3504.07244495003
31536.6520071159
31536.6526227045
3504.07251359264
50.4586441950965
50.4586441939582
50.458644192358
50.4586441903001
50.4586441877948
50.4586441848535
50.4586441814919
50.4586441777303
50.4586441735934
50.4586441691096
50.4586441643095
50.4586441592257
50.4586441538915
50.4586441483406
50.4586441426071
50.4586441367243
50.4586441307255
50.4586441246427
50.4586441185073
50.4586441123491
50.458644106197
50.4586441000782
50.4586440940185
50.4586440880419
50.458644082171
50.4586440764265
50.4586440708277
50.4586440653919
50.4586440601352
50.4586440550718
50.4586440502145
50.4586440455745
50.4586440411616
50.4586440369842
50.4586440330491
50.4586440293617
50.4586440259265
50.4586440227467
50.458644019825
50.4586440171644
50.4586440147686
50.4586440126439
50.4586440107983
50.4586440092397
50.4586440079681
50.4586440069864
3504.07250043235
31536.6525040464
31536.6531219632
3504.07256909288
50.4586449943165
50.4586449931916
50.4586449915926
50.4586449895383
50.458644987041
50.4586449841129
50.4586449807699
50.4586449770323
50.4586449729246
50.4586449684747
50.458644963713
50.4586449586712
50.4586449533823
50.4586449478795
50.4586449421965
50.4586449363661
50.4586449304211
50.4586449243934
50.4586449183138
50.4586449122121
50.4586449061167
50.4586449000546
50.4586448940513
50.4586448881309
50.4586448823155
50.4586448766258
50.4586448710808
50.458644865698
50.458644860493
50.4586448554802
50.4586448506722
50.4586448460802
50.4586448417139
50.4586448375816
50.4586448336902
50.4586448300451
50.4586448266507
50.4586448235103
50.4586448206266
50.4586448180024
50.4586448156415
50.4586448135497
50.4586448117348
50.4586448102043
50.4586448089576
50.4586448079793
3504.07255605833
31536.6530043137
31536.6536214636
3504.07262459594
50.4586457935518
50.4586457924232
50.4586457908236
50.458645788773
50.4586457862847
50.4586457833711
50.4586457800483
50.4586457763366
50.4586457722602
50.4586457678467
50.4586457631258
50.4586457581289
50.4586457528884
50.4586457474369
50.4586457418076
50.458645736033
50.4586457301455
50.4586457241763
50.4586457181562
50.4586457121145
50.4586457060793
50.4586457000775
50.4586456941343
50.4586456882734
50.4586456825171
50.4586456768856
50.4586456713979
50.4586456660712
50.4586456609214
50.4586456559622
50.4586456512066
50.4586456466655
50.4586456423487
50.4586456382643
50.4586456344193
50.4586456308191
50.4586456274681
50.4586456243694
50.4586456215261
50.4586456189408
50.458645616617
50.4586456145603
50.4586456127782
50.4586456112776
50.4586456100581
50.4586456091025
3504.0726116936
31536.653504986
31536.6541208539
3504.07268008307
50.4586465925522
50.4586465914175
50.4586465898171
50.4586465877711
50.4586465852926
50.4586465823947
50.4586465790936
50.4586465754095
50.4586465713666
50.4586465669918
50.4586465623143
50.458646557365
50.4586465521756
50.4586465467784
50.4586465412061
50.4586465354904
50.4586465296635
50.4586465237562
50.4586465177989
50.4586465118205
50.458646505849
50.4586464999108
50.458646494031
50.4586464882331
50.458646482539
50.4586464769688
50.4586464715417
50.4586464662743
50.4586464611824
50.45864645628
50.4586464515796
50.4586464470922
50.4586464428276
50.4586464387938
50.4586464349977
50.4586464314449
50.4586464281396
50.4586464250853
50.4586464222846
50.4586464197402
50.4586464174558
50.4586464154363
50.4586464136888
50.45864641222
50.4586464110293
50.4586464101001
3504.07266732029
31536.6540056311
31536.6546200966
3504.07273555321
50.4586473913079
50.4586473901666
50.4586473885659
50.4586473865249
50.4586473840572
50.458647381176
50.4586473778981
50.4586473742434
50.4586473702357
50.4586473659016
50.4586473612699
50.4586473563706
50.4586473512351
50.4586473458949
50.4586473403822
50.4586473347284
50.458647328965
50.4586473231226
50.4586473172312
50.4586473113192
50.4586473054144
50.4586472995429
50.4586472937295
50.4586472879975
50.4586472823686
50.4586472768629
50.458647271499
50.4586472662938
50.4586472612627
50.4586472564197
50.4586472517772
50.4586472473461
50.4586472431361
50.4586472391552
50.4586472354104
50.4586472319072
50.4586472286499
50.4586472256419
50.458647222886
50.4586472203847
50.4586472181415
50.4586472161611
50.4586472144501
50.4586472130146
50.4586472118541
50.4586472109533
3504.07272293698
31536.6545061936
31536.6551191966
3504.07279100738
50.4586481898326
50.4586481886849
50.4586481870843
50.458648185049
50.4586481825929
50.4586481797297
50.4586481764762
50.4586481728524
50.4586481688818
50.4586481645904
50.4586481600065
50.4586481551595
50.4586481500802
50.4586481447995
50.458648139349
50.4586481337598
50.4586481280627
50.458648122288
50.4586481164651
50.4586481106224
50.4586481047871
50.458648098985
50.4586480932409
50.4586480875776
50.4586480820167
50.4586480765781
50.4586480712801
50.4586480661397
50.458648061172
50.4586480563908
50.4586480518086
50.4586480474361
50.458648043283
50.4586480393574
50.458648035666
50.4586480322145
50.4586480290072
50.4586480260475
50.4586480233383
50.458648020882
50.4586480186819
50.4586480167423
50.4586480150695
50.4586480136688
50.45864801254
50.4586480116685
3504.07277854426
31536.6550066733
31536.6556181696
3504.07284644741
50.4586489881543
50.4586489870003
50.4586489854002
50.4586489833713
50.4586489809276
50.4586489780834
50.4586489748556
50.4586489712641
50.4586489673322
50.4586489630852
50.4586489585509
50.4586489537583
50.4586489487372
50.4586489435183
50.4586489381324
50.4586489326099
50.4586489269816
50.458648921277
50.4586489155252
50.4586489097541
50.4586489039908
50.4586488982607
50.4586488925883
50.4586488869961
50.4586488815056
50.4586488761364
50.4586488709068
50.4586488658333
50.4586488609312
50.4586488562141
50.4586488516943
50.4586488473826
50.4586488432885
50.45864883942
50.458648835784
50.458648832386
50.4586488292306
50.458648826321
50.4586488236601
50.4586488212505
50.4586488190951
50.4586488171981
50.4586488155648
50.4586488142004
50.4586488131043
50.4586488122635
3504.07283414319
31536.6555070812
31536.656117029
3504.07290187479
50.458649786293
50.4586497851331
50.4586497835339
50.458649781512
50.4586497790816
50.4586497762574
50.4586497730564
50.4586497694985
50.4586497656066
50.4586497614056
50.4586497569228
50.4586497521861
50.4586497472253
50.4586497420701
50.4586497367507
50.4586497312973
50.4586497257398
50.4586497201074
50.4586497144289
50.4586497087317
50.4586497030425
50.4586496973866
50.4586496917881
50.4586496862692
50.4586496808513
50.4586496755537
50.4586496703945
50.4586496653901
50.4586496605557
50.4586496559046
50.4586496514492
50.4586496472
50.4586496431667
50.4586496393571
50.4586496357782
50.4586496324354
50.4586496293334
50.4586496264756
50.4586496238647
50.4586496215033
50.4586496193941
50.458649617541
50.4586496159487
50.4586496146217
50.4586496135595
50.4586496127501
3504.07288973464
31536.6560074181
31536.6566157923
3504.0729572915
50.458650584279
50.4586505831132
50.4586505815154
50.4586505795011
50.4586505770847
50.4586505742813
50.4586505711081
50.458650567585
50.4586505637344
50.4586505595808
50.4586505551507
50.4586505504718
50.4586505455727
50.4586505404828
50.4586505352318
50.458650529849
50.4586505243641
50.4586505188058
50.4586505132024
50.458650507581
50.4586505019679
50.458650496388
50.4586504908652
50.4586504854215
50.4586504800779
50.4586504748537
50.4586504697667
50.4586504648331
50.4586504600681
50.4586504554847
50.4586504510953
50.4586504469103
50.4586504429393
50.4586504391901
50.4586504356698
50.4586504323837
50.4586504293365
50.4586504265317
50.4586504239722
50.4586504216603
50.4586504195986
50.4586504177906
50.4586504162405
50.458650414952
50.4586504139246
50.4586504131477
3504.07294532006
31536.6565077033
31536.6571144738
3504.07301269911
50.4586513821331
50.458651380962
50.458651379366
50.4586513773599
50.4586513749582
50.4586513721765
50.458651369032
50.4586513655447
50.4586513617364
50.4586513576314
50.4586513532554
50.4586513486353
50.4586513437994
50.4586513387763
50.458651333595
50.4586513282845
50.4586513228737
50.458651317391
50.4586513118642
50.4586513063201
50.4586513007847
50.4586512952824
50.4586512898369
50.4586512844699
50.4586512792023
50.4586512740529
50.4586512690397
50.4586512641785
50.4586512594842
50.45865125497
50.458651250648
50.4586512465285
50.4586512426212
50.4586512389337
50.4586512354732
50.458651232245
50.4586512292539
50.4586512265033
50.4586512239963
50.458651221735
50.4586512197221
50.4586512179603
50.4586512164533
50.4586512152043
50.4586512142125
50.4586512134685
3504.0730009001
31536.6570079391
31536.6576130917
3504.07306809965
50.4586521798866
50.4586521787103
50.4586521771165
50.4586521751192
50.458652172733
50.4586521699735
50.4586521668586
50.4586521634078
50.4586521596429
50.4586521555874
50.4586521512663
50.4586521467063
50.4586521419346
50.4586521369792
50.4586521318688
50.4586521266316
50.4586521212962
50.4586521158903
50.4586521104414
50.4586521049758
50.4586520995192
50.4586520940957
50.4586520887288
50.4586520834398
50.4586520782493
50.4586520731761
50.4586520682377
50.4586520634499
50.4586520588276
50.4586520543837
50.4586520501301
50.4586520460774
50.4586520422346
50.45865203861
50.4586520352102
50.4586520320409
50.4586520291068
50.4586520264114
50.4586520239578
50.4586520217481
50.4586520197847
50.45865201807
50.4586520166071
50.4586520153983
50.4586520144428
50.4586520137326
3504.07305647628
31536.6575081432
31536.6581116606
3504.07312349476
50.4586529775611
50.45865297638
50.4586529747891
50.458652972801
50.4586529704307
50.4586529676943
50.4586529646096
50.4586529611961
50.4586529574752
50.4586529534698
50.4586529492046
50.4586529447053
50.4586529399987
50.458652935112
50.4586529300733
50.4586529249104
50.4586529196512
50.458652914323
50.4586529089529
50.4586529035668
50.4586528981899
50.4586528928463
50.4586528875587
50.4586528823486
50.4586528772362
50.45865287224
50.4586528673774
50.4586528626641
50.4586528581146
50.4586528537419
50.4586528495577
50.4586528455723
50.4586528417951
50.4586528382339
50.4586528348957
50.4586528317861
50.4586528289097
50.4586528262704
50.4586528238709
50.4586528217135
50.4586528198004
50.4586528181335
50.4586528167153
50.4586528155474
50.4586528146288
50.4586528139526
3504.07311204939
31536.658008317
31536.658610199
3504.07317888649
50.4586537751883
50.4586537740027
50.4586537724149
50.4586537704367
50.4586537680829
50.45865376537
50.4586537623161
50.4586537589403
50.4586537552639
50.4586537513093
50.4586537471004
50.4586537426623
50.4586537380213
50.4586537332039
50.4586537282375
50.4586537231493
50.4586537179668
50.458653712717
50.4586537074262
50.4586537021201
50.4586536968237
50.4586536915604
50.4586536863528
50.4586536812222
50.4586536761884
50.4586536712698
50.4586536664836
50.4586536618453
50.4586536573691
50.4586536530681
50.4586536489537
50.4586536450364
50.4586536413252
50.4586536378281
50.458653634552
50.4586536315025
50.4586536286844
50.4586536261014
50.4586536237566
50.4586536216521
50.4586536197897
50.4586536181712
50.4586536167982
50.4586536156716
50.4586536147902
50.4586536141487
3504.07316762085
31536.6585084771
31536.6591087217
3504.07323427649
50.4586545727899
50.4586545716005
50.4586545700163
50.4586545680483
50.4586545657115
50.4586545630227
50.4586545599999
50.4586545566624
50.4586545530309
50.4586545491274
50.4586545449751
50.4586545405986
50.4586545360234
50.4586545312754
50.4586545263816
50.4586545213685
50.4586545162631
50.4586545110918
50.4586545058807
50.4586545006549
50.4586544954391
50.4586544902564
50.4586544851293
50.4586544800784
50.4586544751236
50.4586544702829
50.4586544655733
50.4586544610102
50.4586544566078
50.4586544523788
50.4586544483345
50.4586544444855
50.4586544408406
50.4586544374079
50.4586544341941
50.458654431205
50.4586544284455
50.4586544259193
50.4586544236294
50.4586544215781
50.4586544197669
50.458654418197
50.4586544168694
50.4586544157844
50.4586544149406
50.4586544143337
3504.0732231916
31536.6590086317
31536.6596072471
3504.07328966684
50.4586553703979
50.4586553692047
50.4586553676246
50.4586553656674
50.458655363348
50.4586553606835
50.4586553576922
50.4586553543931
50.4586553508067
50.4586553469543
50.4586553428587
50.4586553385438
50.4586553340344
50.458655329356
50.4586553245346
50.4586553195966
50.4586553145681
50.4586553094753
50.4586553043438
50.4586552991983
50.4586552940631
50.458655288961
50.4586552839141
50.4586552789429
50.458655274067
50.4586552693042
50.4586552646713
50.4586552601834
50.4586552558546
50.4586552516975
50.4586552477235
50.4586552439426
50.4586552403641
50.4586552369956
50.4586552338442
50.4586552309156
50.4586552282147
50.4586552257453
50.4586552235104
50.4586552215123
50.4586552197524
50.4586552182312
50.4586552169493
50.458655215906
50.4586552150998
50.4586552145278
3504.07327876294
31536.6595087886
31536.6601057902
3504.07334505915
50.4586561680338
50.4586561668376
50.4586561652621
50.458656163316
50.4586561610144
50.4586561583746
50.4586561554149
50.4586561521544
50.458656148613
50.4586561448117
50.4586561407728
50.4586561365192
50.4586561320755
50.4586561274662
50.4586561227171
50.4586561178537
50.4586561129019
50.4586561078873
50.458656102835
50.4586560977694
50.4586560927144
50.4586560876925
50.4586560827256
50.4586560778339
50.4586560730365
50.4586560683512
50.4586560637947
50.4586560593817
50.4586560551263
50.4586560510408
50.4586560471367
50.4586560434239
50.4586560399114
50.458656036607
50.4586560335178
50.4586560306494
50.4586560280069
50.4586560255942
50.4586560234143
50.4586560214693
50.4586560197604
50.458656018288
50.4586560170516
50.45865601605
50.4586560152814
50.4586560147439
3504.0733343358
31536.6600089625
31536.660604369
3504.07340045549
50.4586569657291
50.4586569645302
50.4586569629596
50.4586569610251
50.4586569587416
50.4586569561266
50.4586569531986
50.4586569499766
50.4586569464801
50.4586569427297
50.4586569387469
50.4586569345543
50.4586569301756
50.458656925635
50.4586569209575
50.4586569161681
50.4586569112923
50.4586569063551
50.4586569013814
50.458656896395
50.4586568914196
50.4586568864773
50.4586568815897
50.4586568767766
50.4586568720571
50.4586568674488
50.4586568629679
50.4586568586292
50.4586568544466
50.4586568504322
50.4586568465974
50.458656842952
50.458656839505
50.4586568362643
50.4586568332367
50.4586568304282
50.4586568278436
50.4586568254871
50.4586568233617
50.4586568214695
50.4586568198115
50.4586568183875
50.4586568171964
50.4586568162361
50.4586568155048
50.458656815002
3504.07338991161
31536.6605091611
31536.6611029982
3504.07345585746
50.4586577635051
50.4586577623042
50.4586577607391
50.4586577588165
50.4586577565513
50.4586577539613
50.458657751065
50.4586577478813
50.4586577444294
50.4586577407293
50.4586577368021
50.4586577326698
50.4586577283555
50.4586577238827
50.4586577192759
50.4586577145597
50.458657709759
50.4586577048984
50.4586577000022
50.4586576950941
50.4586576901973
50.4586576853336
50.4586576805243
50.458657675789
50.4586576711466
50.4586576666142
50.4586576622081
50.4586576579428
50.4586576538321
50.458657649888
50.4586576461216
50.4586576425429
50.4586576391607
50.4586576359828
50.4586576330163
50.4586576302668
50.4586576277396
50.4586576254387
50.4586576233673
50.4586576215273
50.4586576199196
50.4586576185435
50.4586576173972
50.458657616478
50.4586576157837
50.4586576153148
3504.07344549119
31536.6610093948
31536.6616016954
3504.07351126703
50.4586585613923
50.4586585601897
50.4586585586304
50.4586585567201
50.4586585544735
50.4586585519085
50.4586585490438
50.458658545898
50.4586585424902
50.4586585388398
50.4586585349674
50.4586585308945
50.4586585266434
50.4586585222373
50.4586585177002
50.4586585130559
50.4586585083291
50.4586585035438
50.4586584987239
50.4586584938929
50.4586584890733
50.458658484287
50.4586584795547
50.4586584748959
50.4586584703292
50.4586584658716
50.458658461539
50.458658457346
50.458658453306
50.458658449431
50.458658445732
50.4586584422189
50.4586584389004
50.4586584357844
50.4586584328778
50.4586584301865
50.4586584277158
50.4586584254697
50.4586584234515
50.458658421663
50.4586584201048
50.4586584187759
50.4586584176738
50.4586584167949
50.4586584161369
50.4586584157018
3504.07350107588
31536.661509673
31536.6621004746
3504.07356668577
50.4586593594113
50.4586593582078
50.4586593566549
50.4586593547572
50.4586593525293
50.4586593499892
50.4586593471558
50.4586593440476
50.4586593406832
50.4586593370816
50.4586593332631
50.4586593292484
50.4586593250595
50.4586593207189
50.45865931625
50.4586593116762
50.4586593070218
50.4586593023103
50.4586592975652
50.4586592928097
50.4586592880659
50.4586592833553
50.4586592786986
50.4586592741148
50.4586592696223
50.4586592652379
50.4586592609775
50.4586592568553
50.4586592528846
50.4586592490773
50.4586592454444
50.4586592419955
50.4586592387395
50.4586592356841
50.4586592328363
50.4586592302021
50.4586592277868
50.4586592255944
50.4586592236283
50.4586592218902
50.4586592203807
50.4586592190982
50.4586592180394
50.4586592172001
50.4586592165777
50.4586592161753
3504.0735566665
31536.6620100047
31536.6625993529
3504.07362211558
50.4586601575911
50.4586601563872
50.4586601548411
50.4586601529562
50.4586601507471
50.458660148232
50.4586601454295
50.4586601423582
50.4586601390363
50.4586601354827
50.4586601317168
50.458660127759
50.4586601236307
50.458660119354
50.4586601149517
50.4586601104468
50.458660105863
50.4586601012235
50.4586600965515
50.4586600918695
50.4586600871997
50.4586600825631
50.4586600779799
50.4586600734693
50.4586600690492
50.4586600647364
50.4586600605463
50.4586600564931
50.45866005259
50.4586600488488
50.4586600452803
50.4586600418941
50.4586600386991
50.4586600357028
50.4586600329124
50.4586600303339
50.4586600279725
50.4586600258326
50.4586600239173
50.4586600222286
50.4586600207665
50.4586600195292
50.4586600185127
50.4586600177119
50.4586600171243
50.4586600167541
3504.07361226433
31536.6625103989
31536.6630983435
3504.07367755791
50.4586609559516
50.4586609547479
50.458660953209
50.4586609513374
50.4586609491472
50.4586609466567
50.4586609438848
50.4586609408497
50.4586609375695
50.4586609340625
50.4586609303479
50.4586609264456
50.4586609223763
50.4586609181617
50.4586609138241
50.4586609093862
50.4586609048711
50.4586609003015
50.4586608957005
50.4586608910901
50.4586608864922
50.4586608819274
50.4586608774159
50.4586608729764
50.4586608686267
50.4586608643832
50.4586608602615
50.4586608562754
50.458660852438
50.458660848761
50.4586608452551
50.4586608419298
50.4586608387939
50.4586608358551
50.4586608331205
50.458660830596
50.4586608282872
50.4586608261982
50.4586608243324
50.4586608226915
50.4586608212756
50.4586608200822
50.4586608191066
50.4586608183433
50.4586608177893
50.4586608174499
3504.07366787034
31536.6630108686
31536.6635974622
3504.07373301456
50.4586617545197
50.4586617533168
50.4586617517856
50.4586617499274
50.4586617477561
50.4586617452901
50.4586617425481
50.4586617395484
50.4586617363087
50.4586617328471
50.4586617291823
50.4586617253336
50.4586617213215
50.458661717167
50.4586617128922
50.458661708519
50.4586617040703
50.4586616995685
50.458661695036
50.4586616904949
50.4586616859664
50.4586616814712
50.458661677029
50.4586616726582
50.4586616683766
50.4586616642002
50.4586616601446
50.4586616562234
50.4586616524495
50.4586616488345
50.4586616453891
50.4586616421226
50.4586616390439
50.4586616361607
50.4586616334799
50.4586616310077
50.4586616287496
50.4586616267098
50.4586616248919
50.4586616232973
50.4586616219259
50.4586616207748
50.4586616198388
50.4586616191115
50.4586616185897
50.4586616182804
3504.07372348559
31536.6635114211
31536.6640967216
3504.0737884869
50.4586625533141
50.4586625521126
50.4586625505895
50.458662548745
50.4586625465926
50.4586625441507
50.4586625414381
50.4586625384728
50.4586625352725
50.4586625318548
50.458662528238
50.4586625244412
50.4586625204842
50.4586625163877
50.4586625121732
50.4586625078625
50.4586625034778
50.4586624990412
50.4586624945749
50.4586624901004
50.458662485639
50.4586624812107
50.4586624768351
50.4586624725305
50.4586624683145
50.4586624642028
50.4586624602108
50.458662456352
50.4586624526392
50.4586624490839
50.4586624456966
50.4586624424868
50.4586624394631
50.4586624366333
50.4586624340043