/*--------------------------------*- C++ -*----------------------------------*\
  =========                 |
  \\      /  F ield         | OpenFOAM: The Open Source CFD Toolbox
   \\    /   O peration     | Website:  https://openfoam.org
    \\  /    A nd           | Version:  10
     \\/     M anipulation  |
\*---------------------------------------------------------------------------*/
FoamFile
{
    format      ascii;
    class       volScalarField;
    location    "0.4";
    object      p;
}
// * * * * * * * * * * * * * * * * * * * * * * * * * * * * * * * * * * * * * //

dimensions      [1 -1 -2 0 0 0 0];

internalField   nonuniform List<scalar> 
2500
(
100024.260383874
100024.260376685
100024.260377713
100024.260379859
100024.260382513
100024.260385646
100024.260389273
100024.260393404
100024.26039804
100024.260403165
100024.260408755
100024.260414778
100024.260421197
100024.26042797
100024.260435057
100024.260442413
100024.260449996
100024.260457762
100024.260465671
100024.260473679
100024.260481749
100024.260489841
100024.260497919
100024.260505948
100024.260513894
100024.260521728
100024.26052942
100024.260536944
100024.260544274
100024.260551388
100024.260558265
100024.260564886
100024.260571234
100024.260577293
100024.26058305
100024.260588493
100024.260593611
100024.260598395
100024.260602838
100024.26060693
100024.260610665
100024.260614033
100024.260617019
100024.260619604
100024.260621762
100024.260623458
100024.260624655
100024.260625334
100024.260625995
100024.260633785
100024.258167358
100024.258162175
100024.258160663
100024.258162719
100024.258165361
100024.258168488
100024.258172111
100024.25817624
100024.258180872
100024.258185995
100024.258191582
100024.258197601
100024.258204016
100024.258210785
100024.258217867
100024.258225219
100024.258232796
100024.258240558
100024.25824846
100024.258256464
100024.258264527
100024.258272614
100024.258280686
100024.258288709
100024.25829665
100024.258304478
100024.258312164
100024.258319682
100024.258327007
100024.258334116
100024.258340987
100024.258347603
100024.258353946
100024.25836
100024.258365752
100024.258371191
100024.258376304
100024.258381085
100024.258385523
100024.258389613
100024.258393345
100024.25839671
100024.258399695
100024.25840228
100024.258404439
100024.25840614
100024.258407351
100024.258408127
100024.258411346
100024.258417604
100024.256052621
100024.256050974
100024.256051563
100024.256053591
100024.256056212
100024.256059325
100024.256062939
100024.256067061
100024.256071687
100024.256076802
100024.256082382
100024.256088394
100024.256094799
100024.256101559
100024.256108631
100024.256115972
100024.256123538
100024.256131288
100024.256139179
100024.25614717
100024.256155221
100024.256163295
100024.256171354
100024.256179364
100024.256187293
100024.256195108
100024.256202782
100024.256210288
100024.256217601
100024.256224698
100024.256231558
100024.256238162
100024.256244494
100024.256250538
100024.25625628
100024.256261708
100024.256266813
100024.256271584
100024.256276015
100024.256280097
100024.256283823
100024.256287184
100024.256290166
100024.256292751
100024.256294914
100024.256296626
100024.256297861
100024.256298676
100024.256299772
100024.25630241
100024.253969746
100024.253969474
100024.253970623
100024.253972648
100024.253975234
100024.253978325
100024.253981923
100024.253986033
100024.253990648
100024.253995752
100024.254001319
100024.254007317
100024.254013709
100024.254020453
100024.254027509
100024.254034832
100024.254042381
100024.254050112
100024.254057984
100024.254065955
100024.254073987
100024.254082041
100024.25409008
100024.254098071
100024.25410598
100024.254113776
100024.25412143
100024.254128917
100024.254136211
100024.254143289
100024.254150131
100024.254156718
100024.254163033
100024.254169061
100024.254174787
100024.254180201
100024.254185291
100024.25419005
100024.254194468
100024.25419854
100024.254202257
100024.25420561
100024.254208588
100024.254211174
100024.254213344
100024.254215074
100024.254216347
100024.254217195
100024.25421774
100024.254218791
100024.251894068
100024.251894159
100024.251895248
100024.251897211
100024.251899753
100024.251902816
100024.251906394
100024.251910488
100024.251915087
100024.251920176
100024.251925727
100024.251931707
100024.251938079
100024.251944802
100024.251951836
100024.251959136
100024.25196666
100024.251974367
100024.251982213
100024.251990159
100024.251998165
100024.252006192
100024.252014205
100024.25202217
100024.252030052
100024.252037822
100024.252045451
100024.252052913
100024.252060182
100024.252067236
100024.252074054
100024.252080619
100024.252086911
100024.252092917
100024.252098623
100024.252104018
100024.25210909
100024.252113831
100024.252118233
100024.252122291
100024.252125995
100024.25212934
100024.252132312
100024.252134898
100024.252137076
100024.252138826
100024.252140144
100024.252141066
100024.252141687
100024.252142299
100024.24982011
100024.24982028
100024.249821292
100024.249823188
100024.249825685
100024.249828717
100024.249832273
100024.249836347
100024.249840928
100024.249845997
100024.249851527
100024.249857485
100024.249863833
100024.249870531
100024.249877537
100024.249884809
100024.249892304
100024.24989998
100024.249907795
100024.249915709
100024.249923682
100024.249931678
100024.249939658
100024.24994759
100024.249955441
100024.249963179
100024.249970776
100024.249978207
100024.249985446
100024.24999247
100024.24999926
100024.250005796
100024.250012062
100024.250018042
100024.250023723
100024.250029094
100024.250034143
100024.250038863
100024.250043246
100024.250047286
100024.250050976
100024.250054308
100024.250057273
100024.250059857
100024.250062042
100024.250063812
100024.250065171
100024.250066165
100024.250066872
100024.250067386
100024.247746823
100024.247747008
100024.247747968
100024.247749806
100024.24775226
100024.247755262
100024.247758793
100024.247762845
100024.247767404
100024.247772451
100024.247777956
100024.247783887
100024.247790207
100024.247796874
100024.247803848
100024.247811086
100024.247818545
100024.247826185
100024.247833963
100024.24784184
100024.247849775
100024.247857733
100024.247865675
100024.247873569
100024.247881381
100024.247889082
100024.247896643
100024.247904037
100024.24791124
100024.24791823
100024.247924986
100024.247931489
100024.247937723
100024.247943672
100024.247949324
100024.247954666
100024.247959689
100024.247964384
100024.247968744
100024.247972763
100024.247976435
100024.247979753
100024.247982707
100024.247985287
100024.247987477
100024.247989265
100024.247990659
100024.24799171
100024.247992473
100024.24799297
100024.245674012
100024.2456742
100024.245675126
100024.245676918
100024.245679333
100024.245682304
100024.245685809
100024.245689836
100024.245694371
100024.245699392
100024.245704869
100024.245710769
100024.245717056
100024.245723688
100024.245730624
100024.245737823
100024.245745243
100024.245752841
100024.245760576
100024.24576841
100024.245776302
100024.245784215
100024.245792114
100024.245799964
100024.245807732
100024.24581539
100024.245822908
100024.245830261
100024.245837423
100024.245844373
100024.24585109
100024.245857555
100024.245863753
100024.245869667
100024.245875285
100024.245880595
100024.245885588
100024.245890254
100024.245894588
100024.245898583
100024.245902233
100024.245905534
100024.245908476
100024.245911049
100024.24591324
100024.245915041
100024.245916463
100024.245917555
100024.245918352
100024.245918847
100024.243601637
100024.243601828
100024.243602732
100024.243604487
100024.243606868
100024.243609809
100024.243613287
100024.243617288
100024.243621796
100024.243626787
100024.243632233
100024.243638099
100024.243644348
100024.24365094
100024.243657834
100024.243664989
100024.243672363
100024.243679914
100024.243687602
100024.243695387
100024.24370323
100024.243711093
100024.243718943
100024.243726743
100024.243734463
100024.243742073
100024.243749543
100024.243756849
100024.243763965
100024.24377087
100024.243777543
100024.243783966
100024.243790122
100024.243795997
100024.243801577
100024.243806851
100024.24381181
100024.243816444
100024.243820748
100024.243824716
100024.243828342
100024.243831622
100024.243834548
100024.243837111
100024.243839301
100024.24384111
100024.243842551
100024.243843671
100024.243844487
100024.24384498
100024.241529676
100024.241529872
100024.241530763
100024.241532488
100024.241534838
100024.241537751
100024.241541202
100024.241545175
100024.241549654
100024.241554613
100024.241560023
100024.241565851
100024.241572058
100024.241578606
100024.241585454
100024.24159256
100024.241599883
100024.241607383
100024.241615017
100024.241622748
100024.241630536
100024.241638346
100024.24164614
100024.241653886
100024.241661552
100024.241669108
100024.241676526
100024.241683779
100024.241690845
100024.2416977
100024.241704325
100024.241710701
100024.241716812
100024.241722643
100024.241728181
100024.241733415
100024.241738336
100024.241742934
100024.241747205
100024.241751142
100024.241754741
100024.241757997
100024.241760904
100024.241763455
100024.241765639
100024.241767451
100024.241768904
100024.24177004
100024.241770865
100024.241771354
100024.239458115
100024.239458318
100024.239459202
100024.239460905
100024.239463228
100024.239466113
100024.239469536
100024.239473481
100024.239477928
100024.239482853
100024.239488224
100024.23949401
100024.239500172
100024.239506671
100024.239513468
100024.239520521
100024.239527789
100024.239535231
100024.239542807
100024.239550479
100024.239558208
100024.239565957
100024.239573692
100024.239581379
100024.239588985
100024.239596482
100024.239603842
100024.239611039
100024.239618049
100024.23962485
100024.239631422
100024.239637747
100024.239643808
100024.239649592
100024.239655084
100024.239660275
100024.239665154
100024.239669713
100024.239673947
100024.239677851
100024.239681419
100024.239684648
100024.239687533
100024.239690067
100024.239692242
100024.239694052
100024.239695509
100024.239696654
100024.239697478
100024.239697959
100024.237386932
100024.237387145
100024.237388026
100024.23738971
100024.23739201
100024.237394869
100024.237398265
100024.23740218
100024.237406593
100024.23741148
100024.237416811
100024.237422551
100024.237428664
100024.237435111
100024.237441852
100024.237448847
100024.237456054
100024.237463435
100024.237470949
100024.237478557
100024.237486221
100024.237493906
100024.237501576
100024.237509198
100024.237516741
100024.237524175
100024.237531473
100024.237538608
100024.237545558
100024.2375523
100024.237558815
100024.237565085
100024.237571093
100024.237576825
100024.237582268
100024.237587411
100024.237592245
100024.237596762
100024.237600956
100024.237604823
100024.237608358
100024.237611557
100024.237614417
100024.23761693
100024.237619091
100024.237620894
100024.237622349
100024.237623494
100024.237624313
100024.237624783
100024.23531611
100024.235316335
100024.235317218
100024.235318888
100024.235321166
100024.235324
100024.235327368
100024.235331252
100024.23533563
100024.235340478
100024.235345764
100024.235351455
100024.235357515
100024.235363906
100024.235370588
100024.235377521
100024.235384664
100024.235391979
100024.235399426
100024.235406965
100024.235414561
100024.235422176
100024.235429777
100024.23543733
100024.235444804
100024.235452171
100024.235459401
100024.235466471
100024.235473357
100024.235480037
100024.23548649
100024.235492701
100024.235498651
100024.235504328
100024.235509718
100024.23551481
100024.235519596
100024.235524068
100024.235528219
100024.235532046
100024.235535544
100024.235538711
100024.235541542
100024.235544032
100024.235546174
100024.235547964
100024.235549413
100024.235550552
100024.23555136
100024.235551816
100024.233245625
100024.233245863
100024.233246749
100024.233248407
100024.233250666
100024.233253477
100024.233256818
100024.23326067
100024.233265011
100024.233269816
100024.233275056
100024.233280695
100024.2332867
100024.233293031
100024.233299649
100024.233306516
100024.233313592
100024.233320836
100024.233328211
100024.233335678
100024.2333432
100024.233350742
100024.233358269
100024.233365749
100024.233373151
100024.233380445
100024.233387605
100024.233394606
100024.233401423
100024.233408036
100024.233414425
100024.233420573
100024.233426462
100024.23343208
100024.233437414
100024.233442453
100024.233447187
100024.23345161
100024.233455716
100024.2334595
100024.233462959
100024.233466089
100024.233468888
100024.233471351
100024.233473471
100024.233475245
100024.233476682
100024.23347781
100024.233478602
100024.233479042
100024.231175455
100024.231175709
100024.231176601
100024.23117825
100024.231180491
100024.231183279
100024.231186592
100024.231190411
100024.231194714
100024.231199476
100024.231204666
100024.231210251
100024.231216196
100024.231222464
100024.231229016
100024.231235814
100024.231242817
100024.231249988
100024.231257287
100024.231264678
100024.231272123
100024.231279587
100024.231287037
100024.231294439
100024.231301764
100024.231308983
100024.231316068
100024.231322995
100024.231329741
100024.231336283
100024.231342604
100024.231348685
100024.231354511
100024.231360067
100024.231365341
100024.231370323
100024.231375003
100024.231379375
100024.231383432
100024.231387171
100024.231390587
100024.231393679
100024.231396443
100024.231398875
100024.231400969
100024.231402723
100024.231404143
100024.231405256
100024.231406028
100024.231406451
100024.229105573
100024.229105843
100024.229106742
100024.229108384
100024.229110609
100024.229113375
100024.22911666
100024.229120446
100024.229124709
100024.229129425
100024.229134563
100024.229140091
100024.229145975
100024.229152177
100024.229158659
100024.229165383
100024.229172311
100024.229179405
100024.229186625
100024.229193936
100024.2292013
100024.229208683
100024.229216052
100024.229223373
100024.229230618
100024.229237757
100024.229244764
100024.229251615
100024.229258285
100024.229264754
100024.229271003
100024.229277015
100024.229282773
100024.229288264
100024.229293476
100024.229298399
100024.229303022
100024.22930734
100024.229311346
100024.229315036
100024.229318408
100024.229321458
100024.229324184
100024.229326583
100024.229328648
100024.229330377
100024.229331777
100024.22933287
100024.229333621
100024.229334023
100024.227035955
100024.227036243
100024.227037152
100024.227038788
100024.227040998
100024.227043742
100024.227046999
100024.22705075
100024.227054972
100024.227059641
100024.227064725
100024.227070195
100024.227076014
100024.227082147
100024.227088557
100024.227095205
100024.227102055
100024.227109067
100024.227116205
100024.227123432
100024.227130713
100024.227138011
100024.227145295
100024.227152533
100024.227159694
100024.227166751
100024.227173676
100024.227180447
100024.227187038
100024.227193431
100024.227199605
100024.227205545
100024.227211233
100024.227216657
100024.227221804
100024.227226664
100024.227231228
100024.22723549
100024.227239442
100024.227243082
100024.227246407
100024.227249413
100024.227252098
100024.22725446
100024.227256493
100024.227258195
100024.22725957
100024.227260641
100024.227261367
100024.227261748
100024.224966572
100024.224966878
100024.224967797
100024.224969428
100024.224971623
100024.224974346
100024.224977575
100024.224981291
100024.224985471
100024.224990091
100024.22499512
100024.225000528
100024.225006281
100024.225012343
100024.225018677
100024.225025247
100024.225032015
100024.225038945
100024.225045998
100024.225053138
100024.225060331
100024.225067543
100024.225074739
100024.22508189
100024.225088965
100024.225095936
100024.225102777
100024.225109464
100024.225115975
100024.225122289
100024.225128386
100024.22513425
100024.225139866
100024.22514522
100024.2251503
100024.225155096
100024.225159598
100024.225163801
100024.225167698
100024.225171285
100024.22517456
100024.22517752
100024.225180163
100024.225182485
100024.225184483
100024.225186154
100024.225187503
100024.225188547
100024.225189247
100024.225189606
100024.222897399
100024.222897724
100024.222898654
100024.222900281
100024.222902463
100024.222905164
100024.222908365
100024.222912045
100024.222916182
100024.222920751
100024.222925724
100024.222931069
100024.222936753
100024.222942741
100024.222948998
100024.222955487
100024.222962172
100024.222969015
100024.22297598
100024.222983032
100024.222990136
100024.222997257
100024.223004363
100024.223011424
100024.22301841
100024.223025293
100024.223032048
100024.22303865
100024.223045077
100024.223051309
100024.223057326
100024.223063114
100024.223068655
100024.223073937
100024.223078947
100024.223083676
100024.223088115
100024.223092258
100024.223096097
100024.22309963
100024.223102853
100024.223105765
100024.223108362
100024.223110642
100024.223112603
100024.22311424
100024.22311556
100024.223116576
100024.223117247
100024.223117583
100024.220828404
100024.220828747
100024.220829688
100024.220831312
100024.22083348
100024.220836161
100024.220839333
100024.220842977
100024.22084707
100024.220851588
100024.220856502
100024.220861782
100024.220867396
100024.220873309
100024.220879487
100024.220885893
100024.220892492
100024.220899247
100024.220906122
100024.220913083
100024.220920095
100024.220927124
100024.220934138
100024.220941107
100024.220948002
100024.220954795
100024.22096146
100024.220967975
100024.220974316
100024.220980464
100024.220986401
100024.220992109
100024.220997573
100024.221002781
100024.22100772
100024.221012381
100024.221016755
100024.221020835
100024.221024616
100024.221028092
100024.221031262
100024.221034123
100024.221036673
100024.22103891
100024.22104083
100024.221042433
100024.22104372
100024.221044706
100024.221045348
100024.221045658
100024.21875956
100024.218759923
100024.218760876
100024.218762497
100024.218764652
100024.218767311
100024.218770454
100024.218774061
100024.21877811
100024.218782575
100024.21878743
100024.218792644
100024.218798186
100024.218804023
100024.218810119
100024.218816441
100024.218822952
100024.218829617
100024.218836401
100024.218843269
100024.218850187
100024.218857122
100024.218864042
100024.218870918
100024.218877719
100024.21888442
100024.218890995
100024.21889742
100024.218903674
100024.218909737
100024.21891559
100024.218921217
100024.218926603
100024.218931736
100024.218936602
100024.218941194
100024.218945501
100024.218949517
100024.218953237
100024.218956655
100024.21895977
100024.21896258
100024.218965081
100024.218967272
100024.218969151
100024.218970715
100024.21897197
100024.218972924
100024.218973533
100024.218973819
100024.216690834
100024.216691217
100024.216692182
100024.2166938
100024.216695942
100024.21669858
100024.216701693
100024.216705263
100024.216709266
100024.216713678
100024.216718472
100024.216723619
100024.216729089
100024.216734847
100024.216740861
100024.216747097
100024.21675352
100024.216760094
100024.216766785
100024.216773558
100024.216780381
100024.21678722
100024.216794045
100024.216800825
100024.216807532
100024.21681414
100024.216820622
100024.216826957
100024.216833122
100024.216839098
100024.216844866
100024.216850412
100024.216855718
100024.216860774
100024.216865567
100024.216870087
100024.216874327
100024.216878278
100024.216881936
100024.216885295
100024.216888354
100024.21689111
100024.216893561
100024.216895705
100024.216897541
100024.216899067
100024.216900286
100024.216901206
100024.216901784
100024.216902044
100024.214622201
100024.214622603
100024.21462358
100024.214625195
100024.214627324
100024.21462994
100024.214633024
100024.214636556
100024.214640513
100024.214644871
100024.214649604
100024.214654683
100024.214660079
100024.214665758
100024.214671689
100024.214677838
100024.214684171
100024.214690652
100024.214697249
100024.214703927
100024.214710654
100024.214717397
100024.214724125
100024.214730809
100024.21473742
100024.214743933
100024.214750322
100024.214756565
100024.214762641
100024.214768529
100024.214774212
100024.214779674
100024.2147849
100024.214789878
100024.214794596
100024.214799045
100024.214803215
100024.214807101
100024.214810695
100024.214813995
100024.214816997
100024.214819699
100024.214822098
100024.214824194
100024.214825985
100024.214827471
100024.214828654
100024.21482954
100024.214830084
100024.214830318
100024.212553625
100024.212554046
100024.212555035
100024.212556647
100024.212558762
100024.212561356
100024.21256441
100024.212567904
100024.212571814
100024.212576118
100024.212580789
100024.2125858
100024.212591121
100024.212596721
100024.212602568
100024.212608629
100024.212614871
100024.21262126
100024.212627762
100024.212634344
100024.212640974
100024.212647619
100024.21265425
100024.212660837
100024.212667352
100024.21267377
100024.212680066
100024.212686216
100024.212692201
100024.212698
100024.212703597
100024.212708975
100024.212714121
100024.21271902
100024.212723663
100024.212728039
100024.21273214
100024.212735959
100024.212739491
100024.21274273
100024.212745674
100024.212748321
100024.212750668
100024.212752715
100024.212754461
100024.212755905
100024.212757051
100024.212757902
100024.212758412
100024.21275862
100024.210485079
100024.21048552
100024.210486521
100024.21048813
100024.210490231
100024.210492803
100024.210495826
100024.21049928
100024.210503144
100024.210507393
100024.210512001
100024.210516943
100024.21052219
100024.21052771
100024.210533473
100024.210539447
100024.210545598
100024.210551893
100024.2105583
100024.210564786
100024.210571318
100024.210577866
100024.210584399
100024.210590889
100024.210597308
100024.21060363
100024.210609831
100024.210615889
100024.210621783
100024.210627494
100024.210633004
100024.210638298
100024.210643362
100024.210648183
100024.21065275
100024.210657053
100024.210661084
100024.210664837
100024.210668304
100024.210671483
100024.210674369
100024.21067696
100024.210679255
100024.210681252
100024.210682952
100024.210684355
100024.210685463
100024.210686278
100024.210686754
100024.210686935
100024.20841653
100024.20841699
100024.208418002
100024.208419607
100024.208421694
100024.208424242
100024.208427235
100024.20843065
100024.208434466
100024.208438659
100024.208443206
100024.208448079
100024.20845325
100024.208458691
100024.20846437
100024.208470255
100024.208476316
100024.208482518
100024.20848883
100024.20849522
100024.208501655
100024.208508105
100024.208514541
100024.208520934
100024.208527256
100024.208533482
100024.208539589
100024.208545555
100024.208551358
100024.20855698
100024.208562403
100024.208567613
100024.208572596
100024.208577338
100024.208581829
100024.20858606
100024.208590022
100024.208593707
100024.208597111
100024.208600229
100024.208603056
100024.208605592
100024.208607834
100024.208609781
100024.208611435
100024.208612796
100024.208613866
100024.208614645
100024.208615088
100024.208615242
100024.206347951
100024.206348429
100024.206349452
100024.206351052
100024.206353124
100024.206355649
100024.20635861
100024.206361986
100024.206365754
100024.206369892
100024.206374376
100024.206379181
100024.206384277
100024.206389638
100024.206395233
100024.206401032
100024.206407002
100024.206413111
100024.206419329
100024.206425623
100024.206431961
100024.206438314
100024.206444653
100024.206450949
100024.206457175
100024.206463306
100024.20646932
100024.206475193
100024.206480905
100024.206486439
100024.206491776
100024.206496903
100024.206501804
100024.206506468
100024.206510884
100024.206515042
100024.206518934
100024.206522553
100024.206525893
100024.20652895
100024.206531719
100024.206534199
100024.206536389
100024.206538287
100024.206539895
100024.206541214
100024.206542246
100024.20654299
100024.206543398
100024.206543526
100024.204279308
100024.204279803
100024.204280835
100024.204282431
100024.204284487
100024.204286988
100024.204289916
100024.204293252
100024.204296973
100024.204301056
100024.204305478
100024.204310213
100024.204315236
100024.204320518
100024.20432603
100024.204331741
100024.204337622
100024.204343639
100024.204349763
100024.204355962
100024.204362205
100024.204368462
100024.204374704
100024.204380904
100024.204387035
100024.204393072
100024.204398992
100024.204404774
100024.204410397
100024.204415842
100024.204421095
100024.204426138
100024.204430959
100024.204435545
100024.204439886
100024.204443972
100024.204447795
100024.204451349
100024.204454626
100024.204457622
100024.204460334
100024.204462759
100024.204464896
100024.204466745
100024.204468308
100024.204469585
100024.204470581
100024.204471289
100024.204471664
100024.204471765
100024.202210574
100024.202211086
100024.202212128
100024.202213717
100024.202215756
100024.202218232
100024.202221128
100024.202224424
100024.202228096
100024.202232124
100024.202236484
100024.202241152
100024.202246101
100024.202251305
100024.202256734
100024.20226236
100024.202268152
100024.202274079
100024.20228011
100024.202286215
100024.202292363
100024.202298525
100024.202304672
100024.202310777
100024.202316814
100024.202322758
100024.202328587
100024.202334278
100024.202339812
100024.202345171
100024.202350339
100024.2023553
100024.202360042
100024.202364551
100024.202368818
100024.202372833
100024.202376589
100024.202380077
100024.202383291
100024.202386228
100024.202388883
100024.202391254
100024.20239334
100024.20239514
100024.202396658
100024.202397896
100024.202398854
100024.202399529
100024.20239987
100024.202399946
100024.200141717
100024.200142245
100024.200143294
100024.200144876
100024.200146898
100024.200149348
100024.200152211
100024.200155465
100024.20015909
100024.200163063
100024.200167362
100024.200171962
100024.200176839
100024.200181966
100024.200187314
100024.200192856
100024.20019856
100024.200204398
100024.200210338
100024.200216351
100024.200222405
100024.200228474
100024.200234528
100024.200240539
100024.200246484
100024.200252336
100024.200258074
100024.200263676
100024.200269123
100024.200274397
100024.200279482
100024.200284363
100024.200289026
100024.20029346
100024.200297654
100024.2003016
100024.200305288
100024.200308712
100024.200311865
100024.200314744
100024.200317343
100024.200319661
100024.200321696
100024.20032345
100024.200324924
100024.200326122
100024.200327046
100024.200327687
100024.200327996
100024.200328047
100024.198072711
100024.198073254
100024.19807431
100024.198075884
100024.198077886
100024.19808031
100024.198083138
100024.198086352
100024.198089929
100024.198093848
100024.198098086
100024.19810262
100024.198107425
100024.198112476
100024.198117745
100024.198123204
100024.198128823
100024.198134573
100024.198140424
100024.198146346
100024.19815231
100024.198158287
100024.198164248
100024.198170169
100024.198176023
100024.198181785
100024.198187435
100024.19819295
100024.198198311
100024.198203502
100024.198208505
100024.198213307
100024.198217893
100024.198222253
100024.198226377
100024.198230254
100024.198233876
100024.198237237
100024.198240331
100024.198243152
100024.198245697
100024.198247963
100024.198249949
100024.198251657
100024.19825309
100024.19825425
100024.198255141
100024.19825575
100024.198256028
100024.198256054
100024.196003525
100024.196004082
100024.196005143
100024.196006706
100024.196008689
100024.196011084
100024.196013878
100024.196017051
100024.19602058
100024.196024445
100024.196028623
100024.196033092
100024.196037828
100024.196042805
100024.196047996
100024.196053374
100024.196058909
100024.196064574
100024.196070338
100024.196076171
100024.196082046
100024.196087933
100024.196093806
100024.196099637
100024.196105402
100024.196111077
100024.19611664
100024.19612207
100024.196127349
100024.196132458
100024.196137382
100024.196142106
100024.196146618
100024.196150906
100024.19615496
100024.19615877
100024.196162329
100024.196165629
100024.196168664
100024.19617143
100024.196173922
100024.196176138
100024.196178077
100024.196179741
100024.196181134
100024.196182259
100024.196183118
100024.196183697
100024.196183946
100024.196183948
100024.193934135
100024.193934706
100024.19393577
100024.193937321
100024.193939282
100024.193941648
100024.193944407
100024.193947538
100024.193951019
100024.193954831
100024.19395895
100024.193963356
100024.193968023
100024.193972928
100024.193978043
100024.193983343
100024.193988797
100024.193994378
100024.194000057
100024.194005805
100024.194011593
100024.194017394
100024.194023179
100024.194028924
100024.194034603
100024.194040193
100024.194045672
100024.19405102
100024.194056217
100024.194061247
100024.194066094
100024.194070743
100024.194075183
100024.194079401
100024.194083387
100024.194087133
100024.194090629
100024.19409387
100024.194096849
100024.194099561
100024.194102002
100024.19410417
100024.194106064
100024.194107686
100024.194109041
100024.194110133
100024.194110963
100024.194111515
100024.194111736
100024.194111716
100024.191864513
100024.191865094
100024.191866159
100024.191867697
100024.191869634
100024.19187197
100024.191874692
100024.191877781
100024.191881216
100024.191884975
100024.191889037
100024.19189338
100024.191897981
100024.191902816
100024.191907858
100024.191913081
100024.191918457
100024.191923958
100024.191929555
100024.19193522
100024.191940924
100024.19194664
100024.191952342
100024.191958003
100024.191963599
100024.191969106
100024.191974504
100024.191979772
100024.191984891
100024.191989844
100024.191994616
100024.191999194
100024.192003563
100024.192007713
100024.192011635
100024.192015318
100024.192018755
100024.192021939
100024.192024863
100024.192027524
100024.192029916
100024.192032038
100024.192033889
100024.192035472
100024.192036792
100024.192037853
100024.192038656
100024.192039184
100024.19203938
100024.192039339
100024.189794634
100024.189795226
100024.189796291
100024.189797812
100024.189799723
100024.189802027
100024.189804713
100024.18980776
100024.189811147
100024.189814855
100024.189818861
100024.189823143
100024.18982768
100024.189832447
100024.189837418
100024.189842568
100024.189847868
100024.189853291
100024.189858809
100024.189864394
100024.189870018
100024.189875653
100024.189881274
100024.189886854
100024.18989237
100024.189897798
100024.189903118
100024.189908309
100024.189913352
100024.189918232
100024.189922933
100024.18992744
100024.189931742
100024.189935828
100024.189939686
100024.189943309
100024.189946689
100024.189949818