/*--------------------------------*- C++ -*----------------------------------*\
  =========                 |
  \\      /  F ield         | OpenFOAM: The Open Source CFD Toolbox
   \\    /   O peration     | Website:  https://openfoam.org
    \\  /    A nd           | Version:  10
     \\/     M anipulation  |
\*---------------------------------------------------------------------------*/
FoamFile
{
    format      ascii;
    class       volScalarField;
    location    "0.4";
    object      p_rgh;
}
// * * * * * * * * * * * * * * * * * * * * * * * * * * * * * * * * * * * * * //

dimensions      [1 -1 -2 0 0 0 0];

internalField   nonuniform List<scalar> 
2500
(
24.3742390578846
24.3742837208993
24.3742872541043
24.374289479194
24.3742921353842
24.3742952689208
24.3742988958256
24.3743030276819
24.37430766334
24.3743127886701
24.3743183790066
24.3743244021753
24.374330820734
24.3743375944177
24.3743446808512
24.3743520371791
24.3743596199783
24.3743673866702
24.374375294894
24.3743833037734
24.3743913733197
24.374399465436
24.3744075432332
24.3744155720633
24.3744235188933
24.374431352946
24.3744390451466
24.3744465688069
24.3744538989995
24.3744610130816
24.3744678900257
24.3744745109725
24.3744808586926
24.37448691795
24.3744926749205
24.3744981177442
24.3745032357838
24.3745080200315
24.3745124622656
24.3745165549335
24.3745202898135
24.3745236571558
24.3745266431797
24.3745292284293
24.3745313858235
24.3745330817037
24.3745342758193
24.3745348557859
24.3745329377562
24.3744889215304
24.3752498764661
24.3752710515255
24.3752801308437
24.3752825519623
24.3752852058242
24.3752883333946
24.3752919562685
24.3752960850397
24.3753007178311
24.3753058402508
24.3753114273131
24.3753174468584
24.375323861459
24.3753306308208
24.3753377126413
24.3753450640652
24.3753526417568
24.3753604031081
24.3753683058603
24.3753763091372
24.3753843729792
24.3753924593038
24.3754005312803
24.3754085543333
24.375416495328
24.3754243236035
24.3754320100561
24.3754395280994
24.3754468527331
24.3754539613728
24.3754608329473
24.3754674487282
24.3754737914132
24.3754798457812
24.3754855980515
24.3754910363787
24.3754961501545
24.3755009304296
24.375505368982
24.3755094583612
24.3755131904909
24.3755165557377
24.3755195405538
24.375522125818
24.375524285002
24.3755259854079
24.3755271835544
24.3755275967851
24.3755201489694
24.3754970140581
24.3756155989395
24.3756216543115
24.3756251913001
24.3756275664782
24.3756302001566
24.3756333141209
24.3756369277544
24.375641049337
24.3756456755218
24.3756507911457
24.3756563708885
24.3756623824011
24.3756687882269
24.3756755481154
24.3756826197787
24.3756899604923
24.3756975269789
24.3757052766887
24.3757131674647
24.3757211585034
24.3757292099181
24.3757372836699
24.3757453430007
24.375753353379
24.3757612817426
24.3757690974453
24.375776771456
24.3757842772175
24.3757915897731
24.3757986865676
24.3758055465878
24.3758121511055
24.3758184828184
24.3758245266072
24.3758302686911
24.375835697283
24.3758408018184
24.375845573406
24.3758500039694
24.3758540861745
24.3758578122215
24.3758611727826
24.3758641548775
24.3758667401562
24.3758689034439
24.3758706148947
24.3758718393947
24.3758723451901
24.3758705125219
24.3758638122818
24.3758484715945
24.3758499596006
24.375851457924
24.3758535726811
24.3758561631839
24.3758592544618
24.3758628526994
24.3758669620584
24.3758715769654
24.3758766811225
24.3758822485834
24.3758882468101
24.3758946382586
24.3759013827221
24.3759084380144
24.3759157615132
24.3759233100573
24.375931041257
24.3759389130282
24.3759468847129
24.3759549164824
24.3759629704582
24.3759710099257
24.3759790004551
24.3759869090427
24.375994705144
24.3760023597861
24.3760098464554
24.3760171402682
24.3760242187127
24.3760310608486
24.3760376479768
24.3760439628531
24.376049990402
24.3760557169007
24.3760611306061
24.3760662210698
24.3760709795024
24.3760753979586
24.3760794693953
24.3760831862892
24.3760865399381
24.3760895181185
24.3760921038338
24.3760942741355
24.3760960038635
24.3760972743621
24.3760980365478
24.3760982467502
24.3760970638687
24.3760575316992
24.3760579774826
24.3760591081227
24.3760610896861
24.3760636329971
24.376066696248
24.3760702747531
24.3760743678868
24.3760789676162
24.3760840561736
24.376089606958
24.3760955871403
24.3761019591329
24.3761086827872
24.3761157160479
24.3761230164382
24.3761305409571
24.3761382473749
24.3761460937676
24.3761540396372
24.3761620452715
24.3761700729228
24.3761780860077
24.3761860501982
24.3761939325777
24.3762017027184
24.37620933172
24.3762167931709
24.3762240622309
24.3762311164901
24.3762379350228
24.3762444992462
24.37625079196
24.3762567981612
24.3762625041709
24.3762678983621
24.3762729703594
24.3762777115335
24.376282114099
24.376286171333
24.3762898761197
24.3762932203826
24.376296192946
24.3762987784139
24.3763009564864
24.3763027070527
24.3763040238118
24.3763049273548
24.3763055119343
24.3763056586904
24.3762628987606
24.3762631356658
24.3762641527574
24.3762660519424
24.376268549182
24.3762715819612
24.3762751377799
24.3762792115886
24.3762837927352
24.3762888619967
24.376294392132
24.376300349948
24.3763066978281
24.37631339574
24.3763204017741
24.3763276736281
24.3763351685338
24.3763428444363
24.3763506596006
24.3763585737179
24.3763665472361
24.3763745425822
24.3763825232891
24.3763904551597
24.3763983054523
24.376406043797
24.3764136414247
24.3764210719964
24.3764283107885
24.3764353354636
24.3764421251835
24.3764486614382
24.3764549271
24.3764609072241
24.3764665882481
24.3764719586325
24.3764770080888
24.3764817281772
24.3764861113305
24.3764901510731
24.3764938407985
24.3764971731434
24.3765001380234
24.376502721716
24.3765049066569
24.3765066773194
24.3765080360026
24.3765090265224
24.3765097297
24.3765101547178
24.3764680350432
24.3764682323817
24.3764691931137
24.376471031821
24.3764734859433
24.3764764874504
24.3764800185309
24.3764840703516
24.3764886298159
24.3764936763328
24.3764991819044
24.3765051131486
24.376511432376
24.3765180997143
24.3765250734286
24.3765323114494
24.3765397712559
24.376547411026
24.3765551892429
24.3765630657872
24.376571001354
24.3765789585159
24.3765869010094
24.3765947947541
24.3766026071535
24.3766103079979
24.3766178686201
24.376625262812
24.3766324659373
24.3766394557606
24.37664621156
24.3766527148691
24.3766589486768
24.3766648981255
24.3766705497401
24.3766758920829
24.3766809150256
24.3766856102447
24.376689970406
24.3766939893976
24.3766976610495
24.3767009787407
24.3767039334925
24.3767065132706
24.3767087030428
24.3767104909639
24.3767118848191
24.3767129351763
24.3767136978131
24.3767141788703
24.3766735018871
24.3766736919933
24.376674618019
24.3766764098254
24.376678825065
24.3766817956785
24.3766853006964
24.3766893283027
24.3766938632471
24.376698883716
24.3767043610278
24.3767102616112
24.3767165477911
24.3767231798556
24.3767301163025
24.3767373153532
24.3767447347345
24.3767523329152
24.3767600686406
24.3767679020093
24.3767757939786
24.376783707281
24.3767916058569
24.3767994558293
24.3768072247622
24.3768148825911
24.3768224007654
24.376829753237
24.3768369154714
24.3768438653642
24.3768505822663
24.3768570478423
24.3768632451538
24.3768691594742
24.3768747774157
24.3768800876423
24.3768850801571
24.3768897468253
24.3768940805458
24.3768980754976
24.3769017260347
24.3769050262053
24.3769079681369
24.3769105413376
24.376912732987
24.3769145340484
24.3769159552467
24.3769170472951
24.3769178443763
24.3769183367112
24.376879381045
24.3768795721262
24.3768804768479
24.3768822316633
24.3768846122548
24.3768875529786
24.3768910311483
24.3768950326921
24.3768995405553
24.3769045318186
24.3769099773344
24.3769158432988
24.3769220921531
24.3769286843599
24.3769355787372
24.3769427337975
24.3769501075731
24.3769576588529
24.3769653466588
24.3769731313805
24.3769809741934
24.3769888380921
24.3769966872496
24.3770044879639
24.3770122079732
24.3770198173879
24.3770272878319
24.3770345933735
24.3770417096384
24.3770486146095
24.3770552877977
24.3770617109403
24.377067867259
24.3770737420709
24.3770793221483
24.3770845962426
24.3770895545167
24.3770941890107
24.3770984928269
24.3771024604794
24.377106086773
24.3771093664109
24.3771122925391
24.3771148560772
24.377117045995
24.3771188552782
24.3771202958305
24.3771214158769
24.3771222317882
24.3771227248799
24.3770856708434
24.3770858663047
24.3770867573621
24.3770884830446
24.3770908331499
24.3770937453519
24.3770971962658
24.377101170161
24.3771056486003
24.3771106077766
24.3771160180913
24.3771218456532
24.3771280530636
24.3771346010326
24.3771414487128
24.3771485549514
24.3771558781591
24.3771633774304
24.3771710121218
24.3771787429432
24.377186531332
24.37719434053
24.3772021349432
24.3772098811314
24.3772175469931
24.3772251028422
24.3772325204627
24.3772397740977
24.3772468395036
24.3772536948381
24.3772603196703
24.3772666958976
24.3772728068579
24.3772786380141
24.3772841761966
24.3772894103313
24.3772943306976
24.3772989294812
24.3773032000463
24.3773071371834
24.3773107360903
24.3773139921541
24.3773168993503
24.3773194498353
24.3773216340778
24.3773234463588
24.3773248987127
24.3773260355811
24.377326859918
24.3773273486295
24.3772923594224
24.3772925624944
24.3772934467706
24.3772951493156
24.3772974724125
24.3773003574606
24.3773037809151
24.377307725852
24.3773121727572
24.3773170971108
24.3773224689794
24.3773282545299
24.3773344165384
24.3773409160494
24.3773477125651
24.37735476534
24.3773620331631
24.3773694755073
24.3773770520929
24.3773847239208
24.3773924527632
24.3774002021382
24.3774079367286
24.377415623283
24.3774232299766
24.3774307272834
24.377438087191
24.3774452841026
24.3774522939493
24.3774590949906
24.3774656669993
24.3774719920038
24.377478053415
24.3774838368408
24.377489329243
24.3774945196637
24.3774993985426
24.377503958196
24.3775081921922
24.3775120955979
24.3775156640186
24.3775188933505
24.3775217783696
24.3775243122509
24.3775264866272
24.3775282966672
24.3775297538377
24.3775308986369
24.3775317230611
24.3775322040165
24.3774994264968
24.377499639304
24.3775005205243
24.377502204763
24.377504504082
24.3775073633442
24.3775107592373
24.3775146740954
24.3775190875167
24.3775239744864
24.3775293049257
24.3775350450451
24.3775411579263
24.3775476049777
24.3775543461234
24.3775613410253
24.3775685489236
24.3775759296987
24.37758344342
24.3775910514814
24.3775987159461
24.3776064006961
24.3776140706177
24.3776216927508
24.3776292355033
24.3776366695529
24.3776439671201
24.3776511027681
24.3776580525882
24.377664795029
24.3776713099942
24.3776775796432
24.3776835875469
24.3776893194008
24.377694762341
24.3776999055262
24.3777047394979
24.377709256747
24.3777134510019
24.3777173176059
24.3777208524407
24.3777240519266
24.3777269114944
24.3777294251777
24.3777315855405
24.3777333882899
24.3777348440199
24.3777359891537
24.3777368076844
24.3777372774784
24.3777068543277
24.3777070793585
24.3777079619322
24.3777096315607
24.3777119095612
24.3777147441579
24.3777181124606
24.3777219962067
24.3777263743978
24.3777312216262
24.377736507784
24.3777421992709
24.3777482594742
24.3777546502679
24.3777613320271
24.3777682648943
24.3777754085459
24.3777827232989
24.377790169674
24.3777977094142
24.3778053049318
24.3778129204002
24.3778205210547
24.3778280741972
24.3778355484683
24.3778429148078
24.3778501456109
24.3778572156443
24.3778641011886
24.3778707808669
24.3778772347432
24.3778834451223
24.3778893957206
24.3778950723645
24.3779004623211
24.3779055548221
24.3779103406123
24.3779148122849
24.3779189637426
24.3779227904743
24.3779262887401
24.377929455266
24.3779322861228
24.3779347759846
24.3779369182303
24.3779387088871
24.3779401575157
24.3779412969016
24.3779421040963
24.3779425603425
24.3779146184388
24.377914857032
24.3779157428507
24.3779174009687
24.377919659848
24.3779224708123
24.3779258115101
24.377929663242
24.377934004573
24.3779388099065
24.3779440491344
24.3779496889911
24.3779556932714
24.3779620242713
24.3779686429189
24.3779755098658
24.3779825852689
24.3779898299254
24.3779972047632
24.3780046719185
24.3780121942254
24.3780197361775
24.3780272633012
24.3780347432184
24.3780421448173
24.3780494392558
24.378056599191
24.378063599579
24.3780704169185
24.3780770299927
24.3780834190256
24.3780895664822
24.378095456239
24.3781010742678
24.378106407923
24.378111446611
24.3781161811348
24.3781206042477
24.3781247099832
24.3781284940196
24.378131952777
24.3781350834033
24.3781378823332
24.3781403449539
24.3781424651825
24.3781442393083
24.3781456758588
24.3781468040543
24.3781475960568
24.3781480360922
24.3781226979627
24.37812295201
24.378123844217
24.37812549308
24.378127734366
24.3781305225129
24.3781338355184
24.3781376544066
24.3781419573934
24.3781467188091
24.3781519087206
24.3781574941677
24.37816343944
24.3781697073719
24.3781762594299
24.3781830568041
24.3781900602044
24.378197230908
24.3782045302796
24.3782119209209
24.3782193660154
24.3782268304494
24.378234280055
24.3782416827453
24.3782490076992
24.3782562263514
24.3782633115916
24.3782702385652
24.3782769839891
24.3782835268212
24.3782898474747
24.3782959285891
24.3783017541718
24.3783073103405
24.3783125845803
24.3783175664139
24.3783222467755
24.3783266185055
24.3783306757396
24.3783344142867
24.3783378307853
24.3783409225871
24.3783436865633
24.3783461185521
24.378348213053
24.3783499665587
24.3783513865928
24.3783524992177
24.3783532721136
24.3783536942938
24.3783310653089
24.378331335538
24.3783322349191
24.3783338765061
24.3783361017122
24.378338867682
24.3783421528788
24.3783459381375
24.3783502014558
24.3783549171349
24.3783600555034
24.3783655840234
24.3783714675083
24.3783776693745
24.3783841516852
24.3783908762125
24.3783978042047
24.378404897463
24.3784121178469
24.3784194283653
24.378426792653
24.3784341759019
24.3784415443661
24.378448866235
24.3784561109787
24.3784632502939
24.3784702573175
24.3784771074424
24.3784837775747
24.3784902468615
24.3784964959486
24.3785025075777
24.3785082659597
24.3785137573286
24.3785189693299
24.378523891588
24.3785285151098
24.3785328328377
24.3785368390236
24.3785405295348
24.3785439011554
24.3785469514405
24.3785496775672
24.3785520758247
24.3785541411926
24.3785558703821
24.3785572699999
24.3785583630233
24.3785591141786
24.3785595164518
24.3785396972089
24.3785399850458
24.3785408939439
24.3785425296228
24.3785447396367
24.3785474838369
24.3785507411085
24.3785544919956
24.3785587143939
24.3785633826774
24.3785684674949
24.378573936774
24.3785797559249
24.3785858889896
24.3785922986572
24.3785989473108
24.3786057967809
24.378612809378
24.3786199474998
24.3786271746067
24.3786344547552
24.3786417535157
24.3786490374914
24.3786562752066
24.3786634364515
24.3786704931699
24.3786774187756
24.378684188865
24.3786907806061
24.3786971733207
24.3787033478584
24.3787092871207
24.3787149754935
24.3787203993561
24.3787255464704
24.3787304065627
24.3787349707709
24.378739232081
24.3787431848032
24.3787468248629
24.3787501491606
24.378753155368
24.3787558409385
24.3787582025398
24.3787602356169
24.3787619371287
24.3787633128813
24.3787643831165
24.3787651095772
24.3787654908374
24.3787485636858
24.3787488693924
24.3787497879384
24.3787514189025
24.3787536146701
24.3787563374499
24.3787595665635
24.3787632824242
24.378767462782
24.3787720821711
24.3787771116477
24.3787825196487
24.3787882722099
24.3787943340576
24.3788006685354
24.3788072386524
24.37881400685
24.3788209360209
24.3788279890141
24.3788351298135
24.3788423228689
24.378849534216
24.3788567307929
24.3788638814294
24.378870956265
24.3788779275201
24.3788847688411
24.3788914561301
24.3788979667297
24.3789042802091
24.3789103775489
24.3789162419125
24.3789218578022
24.3789272117283
24.3789322916273
24.3789370873128
24.378941589981
24.3789457927051
24.3789496897953
24.3789532772644
24.3789565520128
24.3789595118433
24.3789621543983
24.3789644767239
24.3789664747019
24.3789681455673
24.3789694944717
24.3789705388772
24.3789712388825
24.3789715974999
24.3789576396666
24.3789579643344
24.3789588943182
24.3789605212805
24.3789627031656
24.378965404685
24.3789686054224
24.3789722855872
24.3789764228859
24.3789809920709
24.3789859645913
24.3789913094806
24.3789969934733
24.3790029819502
24.3790092389536
24.3790157281765
24.3790224126569
24.3790292558406
24.379036221173
24.3790432730893
24.3790503764758
24.3790574977756
24.3790646043053
24.3790716652729
24.3790786511236
24.379085534325
24.3790922888584
24.3790988908149
24.3791053178138
24.3791115496133
24.3791175674414
24.3791233545926
24.3791288957582
24.3791341776086
24.3791391881678
24.3791439173947
24.3791483565292
24.3791524986591
24.3791563381965
24.3791598710959
24.3791630942578
24.3791660056013
24.3791686028999
24.3791708835197
24.3791728438955
24.3791744814662
24.3791758008738
24.3791768171941
24.3791774884448
24.3791778237646
24.3791668934282
24.3791672369698
24.3791681779694
24.3791698016721
24.379171970184
24.3791746505158
24.3791778225859
24.3791814664437
24.3791855597956
24.3791900776123
24.3791949917941
24.3792002720438
24.3792058857362
24.3792117990379
24.3792179766606
24.3792243829812
24.3792309816927
24.3792377368227
24.3792446123407
24.3792515731766
24.3792585847259
24.3792656137812
24.3792726280954
24.3792795971967
24.3792864918505
24.3792932848737
24.3792999504658
24.3793064649944
24.3793128063262
24.3793189544376
24.3793248907459
24.3793305987492
24.379336063299
24.3793412712257
24.3793462106842
24.3793508716917
24.3793552455754
24.3793593254813
24.3793631057488
24.3793665823614
24.3793697522196
24.3793726132135
24.3793751633202
24.3793774002115
24.3793793207442
24.3793809228373
24.3793822105363
24.3793831965013
24.3793838378479
24.3793841485749
24.3793762986461
24.3793766618328
24.3793776152161
24.3793792358629
24.3793813910597
24.3793840501166
24.3793871932139
24.3793908001971
24.3793948487728
24.379399314188
24.379404168867
24.3794093830948
24.3794149250607
24.3794207616302
24.3794268582569
24.3794331800018
24.3794396911835
24.37944635647
24.3794531403546
24.3794600082911
24.379466926126
24.3794738610886
24.3794807813101
24.3794876566826
24.3794944582914
24.3795011592592
24.379507734091
24.3795141594164
24.3795204132912
24.3795264759683
24.3795323290542
24.3795379562507
24.3795433425694
24.3795484749862
24.379553341787
24.3795579330617
24.3795622402249
24.3795662564225
24.3795699759939
24.3795733948209
24.3795765098184
24.3795793188765
24.3795818200888
24.379584011418
24.3795858902304
24.3795874548814
24.3795887090091
24.3795896630763
24.3795902728161
24.3795905586012
24.3795858223602
24.3795862048282
24.3795871698094
24.3795887877204
24.3795909297914
24.3795935674425
24.3795966811886
24.3796002507734
24.3796042538888
24.3796086660586
24.3796134602308
24.3796186074323
24.3796240765223
24.3796298351372
24.3796358494874
24.3796420853469
24.3796485076746
24.3796550817351
24.3796617726039
24.3796685462148
24.3796753689094
24.3796822083532
24.3796890330414
24.3796958132443
24.3797025203967
24.3797091278975
24.3797156105575
24.3797219452536
24.3797281103325
24.3797340862075
24.3797398547613
24.3797453998559
24.3797507066774
24.3797557623475
24.3797605552973
24.3797650756605
24.3797693149536
24.3797732662788
24.3797769239609
24.3797802838526
24.379783342767
24.3797860985796
24.3797885495151
24.3797906938271
24.3797925294057
24.3797940550576
24.3797952741006
24.379796194713
24.3797967722203
24.3797970321029
24.379795437475
24.3797958397336
24.3797968173021
24.379798432361
24.3798005610151
24.3798031769984
24.3798062610294
24.379809792692
24.3798137497215
24.3798181079328
24.3798228408414
24.3798279201437
24.3798333154555
24.3798389951844
24.3798449262831
24.3798510752385
24.3798574076936
24.3798638894805
24.3798704862566
24.3798771644797
24.3798838909424
24.3798906337615
24.3798973618104
24.3799040457525
24.3799106573279
24.3799171702703
24.3799235596671
24.3799298026715
24.3799358778633
24.3799417659175
24.379947448906
24.3799529108655
24.3799581372004
24.3799631151778
24.3799678332871
24.3799722818512
24.3799764523283
24.3799803378788
24.3799839327403
24.3799872327363
24.3799902345636
24.3799929360976
24.3799953356211
24.3799974317371
24.3799992228305
24.3800007082318
24.3800018910115
24.3800027772668
24.3800033213338
24.3800035552413
24.3800051104045
24.3800055318279
24.3800065208925
24.380008133041
24.3800102482055
24.3800128422008
24.3800158961094
24.3800193893985
24.3800232998183
24.3800276035472
24.3800322746247
24.3800372854457
24.3800426063826
24.380048206629
24.3800540538796
24.3800601153052
24.3800663572329
24.3800727461057
24.3800792481634
24.3800858303293
24.3800924599054
24.3800991054304
24.3801057361998
24.380112323197
24.3801188385405
24.3801252562553
24.3801315517339
24.3801377023774
24.3801436870272
24.3801494866057
24.3801550833741
24.3801604615874
24.3801656068244
24.3801705064834
24.3801751491847
24.3801795253239
24.3801836264174
24.3801874455821
24.3801909770264
24.3801942164719
24.3801971605426
24.3801998070703
24.3802021544252
24.3802042015159
24.38020594728
24.3802073916013
24.3802085372299
24.3802093881677
24.380209898678
24.3802101059264
24.3802148136892
24.3802152545395
24.3802162557258
24.3802178645274
24.3802199656639
24.3802225372638
24.3802255605988
24.3802290150488
24.3802328784368
24.3802371272614
24.3802417361294
24.3802466780762
24.3802519243036
24.3802574447182
24.3802632077859
24.3802691813762
24.3802753324562
24.3802816281095
24.3802880351141
24.3802945209172
24.3803010532865
24.3803076011973
24.3803141343233
24.3803206240555
24.380327042818
24.3803333649557
24.3803395661525
24.3803456241003
24.3803515178734
24.3803572286124
24.3803627388261
24.3803680329584
24.3803730967484
24.3803779177542
24.3803824847273
24.3803867880924
24.3803908194532
24.3803945718682
24.3803980395314
24.3804012180481
24.3804041039402
24.3804066950106
24.3804089897021
24.380410987229
24.3804126870818
24.3804140897118
24.3804151976801
24.3804160130676
24.3804164892354
24.3804166700429
24.3804245136416
24.3804249730456
24.3804259849858
24.3804275900911
24.3804296768649
24.3804322255601
24.3804352178704
24.3804386330739
24.38044244911
24.3804466427682
24.3804511892376
24.3804560622375
24.3804612336826
24.3804666742653
24.3804723531648
24.3804782389634
24.3804842992977
24.3804905018187
24.3804968138575
24.3805032033997
24.3805096386786
24.3805160890624
24.3805225246761
24.380528917216
24.3805352394702
24.3805414661474
24.3805475731351
24.3805535384308
24.3805593413854
24.3805649633578
24.3805703870748
24.3805755971553
24.3805805795273
24.3805853219092
24.3805898131686
24.3805940437742
24.3805980053876
24.380601691053
24.3806050948915
24.3806082124065
24.3806110400474
24.3806135755149
24.3806158173829
24.3806177651859
24.3806194189528
24.3806207797315
24.3806218498794
24.3806226293236
24.3806230715127
24.380623225501
24.380634182904
24.3806346608471
24.3806356838177
24.3806372844847
24.3806393561099
24.3806418813037
24.3806448420801
24.3806482176878
24.3806519860664
24.3806561244419
24.3806606084836
24.3806654126238
24.3806705094757
24.3806758704595
24.3806814655254
24.3806872638816
24.3806932338339
24.3806993436156
24.3807055611251
24.3807118548575
24.3807181934535
24.3807245467469
24.3807308852411
24.3807371810253
24.3807434072369
24.3807495387882
24.3807555519743
24.3807614250254
24.3807671375253
24.3807726710802
24.3807780086208
24.3807831349841
24.3807880362729
24.3807927003218
24.380797116115
24.3808012742375
24.3808051663509
24.3808087854995
24.3808121257171
24.3808151824051
24.3808179519547
24.3808204319794
24.3808226211695
24.3808245193504
24.3808261271624
24.3808274461917
24.3808284786501
24.3808292225294
24.3808296304487
24.3808297580981
24.3808437882108
24.3808442836016
24.3808453159581
24.3808469114883
24.3808489673829
24.3808514684497
24.380854397139
24.3808577327436
24.3808614533482
24.3808655364555
24.3808699582733
24.3808746938739
24.3808797165984
24.3808849985799
24.3808905104379
24.3808962220646
24.3809021024063
24.3809081202635
24.3809142440732
24.3809204427816
24.3809266855533
24.3809329426003
24.3809391848481
24.3809453847207
24.3809515156754
24.3809575529594
24.3809634731442
24.380969254722
24.3809748775384
24.380980323418
24.3809855755244
24.3809906188835
24.3809954397439
24.3810000261146
24.3810043670965
24.3810084533616
24.3810122765281
24.3810158296983
24.3810191068333
24.3810221032181
24.3810248151567
24.3810272402479
24.3810293772549
24.3810312263086
24.3810327886458
24.3810340664786
24.3810350617568
24.3810357703187
24.3810361448122
24.3810362460499
24.3810533027136
24.3810538152902
24.38105485696
24.3810564462765
24.3810584853927
24.3810609615175
24.3810638575524
24.3810671528481
24.3810708255478
24.3810748535034
24.3810792134609
24.381083881075
24.381088830356
24.3810940341355
24.381099463717
24.3811050896184
24.381110881397
24.3811168084212
24.3811228396371
24.3811289444857
24.3811350925826
24.381141254562
24.3811474017275
24.3811535068235
24.3811595436564
24.3811654878227
24.3811713161122
24.381177007308
24.3811825415178
24.3811879007699
24.381193068446
24.3811980297614
24.3812027711683
24.3812072807923
24.3812115478504
24.3812155630731
24.3812193181511
24.3812228061288
24.3812260209525
24.3812289577909
24.3812316128897
24.3812339837896
24.3812360693846
24.3812378701114
24.3812393878179
24.3812406252546
24.3812415841676
24.3812422584742
24.3812425997457
24.3812426753284
24.3812626941508
24.3812632225745
24.3812642716221
24.3812658536917
24.3812678751565
24.3812703254807
24.3812731882645
24.3812764428876
24.3812800676969
24.3812840408063
24.3812883394421
24.3812929398264
24.3812978166388
24.3813029433368
24.3813082918787
24.3813138334081
24.3813195380353
24.3813253756816
24.3813313158171
24.3813373283483
24.3813433833275
24.3813494518108
24.3813555054367
24.3813615173276
24.3813674615958
24.3813733141433
24.3813790520508
24.3813846543489
24.3813901014073
24.3813953754434
24.3814004600863
24.3814053407259
24.3814100039599
24.3814144380885
24.3814186324453
24.3814225778333
24.3814262659726
24.3814296898781
24.3814328434819
24.3814357218653
24.381438321172
24.381440638972
24.3814426742756
24.3814444278541
24.3814459021232
24.3814471004443
24.3814480242145
24.3814486651827
24.3814489745855
24.3814490247751
24.381471936591
24.3814724803378
24.3814735362539
24.3814751096797
24.3814771121397
24.3814795356884
24.3814823645225
24.381485578182
24.3814891551301
24.3814930737863
24.3814973117842
24.3815018459427
24.3815066514508
24.3815117024351
24.3815169714217
24.3815224301652
24.3815280493145
24.3815337993437
24.3815396502032
24.3815455722506
24.3815515359747
24.3815575127956
24.3815634747298
24.3815693952638
24.3815752488154
24.3815810115775
24.3815866609075
24.3815921760834
24.3815975376929
24.3816027282301
24.3816077314987
24.3816125330632
24.381617119725
24.3816214798862
24.3816256030259
24.3816294799908
24.3816331025737
24.3816364637605
24.381639557454
24.381642378692
24.3816449235455
24.3816471896134
24.3816491760081
24.3816508838936
24.3816523162823
24.3816534770012
24.3816543672292
24.3816549765907
24.3816552549397
24.381655280813
24.3816809993004
24.3816815567843
24.381682617357
24.3816841807129
24.3816861629457
24.3816885586275
24.381691352799
24.3816945251892
24.3816980544216
24.3817019191483
24.3817060974252
24.3817105665075
24.3817153021664
24.3817202790524
24.3817254703026
24.3817308481812
24.3817363839189
24.3817420484265
24.3817478121637
24.3817536459246
24.381759520591
24.3817654079758
24.3817712804739
24.3817771118775
24.3817828769388
24.3817885520839
24.38179411499
24.3817995451682
24.3818048234534
24.3818099325435
24.3818148564314
24.3818195808999
24.3818240928958
24.3818283809524
24.3818324346357
24.3818362449383
24.3818398036383
24.3818431037798
24.3818461391784
24.3818489048863
24.3818513969018
24.3818536128965
24.3818555521284
24.3818572161836
24.3818586085981
24.3818597337522
24.3818605924316
24.3818611718889
24.3818614210759
24.3818614232587
24.3818898577738
24.3818904281652
24.3818914924341
24.3818930438429
24.3818950041605
24.381897370753
24.381900129476
24.381903260306
24.3819067420118
24.3819105534785
24.381914673053
24.381919078427
24.3819237458811
24.3819286505459
24.3819337660971
24.3819390652934
24.3819445198606
24.3819501012331
24.381955780249
24.3819615281682
24.3819673162652
24.3819731167314
24.3819789022964
24.3819846470724
24.3819903261174
24.3819959161337
24.3820013950608
24.3820067426423
24.3820119399752
24.3820169699175
24.3820218167239
24.3820264662791
24.3820309057483
24.382035123781
24.382039110089
24.3820428556501
24.3820463524025
24.3820495933469
24.3820525722986
24.3820552842808
24.3820577253355
24.3820598931488
24.3820617872407
24.3820634095464
24.3820647642569
24.382065856189
24.3820666857355
24.3820672378206
24.3820674593153
24.3820674392337
24.3820984833146
24.38209906478
24.3821001301403
24.3821016676811
24.3821036044828
24.3821059406473
24.3821086630924
24.3821117520856
24.3821151865559
24.3821189455339
24.3821230076574
24.3821273509384
24.3821319520503
24.3821367866331
24.3821418287698
24.3821470517578
24.3821524277591
24.3821579286305
24.38216352569
24.382169190576
24.3821748949267
24.3821806113265
24.382186312796
24.382191973782
24.3821975696337
24.3822030773154
24.3822084750427
24.3822137427924
24.3822188618506
24.3822238153225
24.382228587594
24.3822331647971
24.3822375341842
24.3822416845942
24.3822456057969
24.3822492889303
24.382252725889
24.3822559097607
24.3822588343901
24.3822614947567
24.3822638869751
24.382266008819
24.38226786007
24.3822694431292
24.3822707627551
24.3822718242882
24.3822726275685
24.3822731548717
24.3822733512498
24.3822733099805
24.3823068532656
24.3823074446118
24.382308509521
24.3823100308509
24.3823119419976
24.3823142462206
24.3823169315001
24.3823199784383
24.3823233660369
24.3823270734429
24.3823310794542
24.3823353623739
24.3823398992536
24.3823446660535
24.382349637337
24.3823547868087
24.3823600870528
24.3823655103479
24.3823710284341
24.3823766132991
24.3823822370032
24.3823878723924
24.3823934928805
24.3823990731617
24.382404588905
24.3824100173224
24.3824153368769
24.3824205277779
24.3824255715008
24.3824304513546
24.3824351519434
24.3824396595301
24.3824439615273
24.3824480469048
24.3824519055488
24.3824555286701
24.382458908236