/*--------------------------------*- C++ -*----------------------------------*\
  =========                 |
  \\      /  F ield         | OpenFOAM: The Open Source CFD Toolbox
   \\    /   O peration     | Website:  https://openfoam.org
    \\  /    A nd           | Version:  10
     \\/     M anipulation  |
\*---------------------------------------------------------------------------*/
FoamFile
{
    format      ascii;
    class       surfaceScalarField;
    location    "0.4";
    object      phi;
}
// * * * * * * * * * * * * * * * * * * * * * * * * * * * * * * * * * * * * * //

dimensions      [1 0 -1 0 0 0 0];

internalField   nonuniform List<scalar> 
4900
(
-6.40722568346965e-13
-7.84062065647795e-13
-1.97203262526544e-12
-8.97903052833321e-13
-2.3633910397662e-12
-1.96449137217953e-12
-2.66071268922047e-12
-1.9650539619836e-12
-2.96522722039859e-12
-1.90414336611141e-12
-3.30114220505361e-12
-1.86097348790281e-12
-3.66187472429084e-12
-1.83322483490548e-12
-4.03246320542411e-12
-1.81295966753251e-12
-4.39899945885159e-12
-1.79540631733459e-12
-4.75049081779961e-12
-1.77822730250916e-12
-5.07956405452496e-12
-1.76048003877396e-12
-5.38102980258115e-12
-1.7417751364854e-12
-5.65204163657794e-12
-1.72210035352181e-12
-5.89052792259561e-12
-1.70146911437353e-12
-6.09585879949181e-12
-1.68005440329122e-12
-6.26740226595251e-12
-1.65792534900852e-12
-6.4056005382246e-12
-1.63528184235919e-12
-6.51054164513209e-12
-1.61218335637441e-12
-6.58327279263944e-12
-1.58882851392014e-12
-6.62432645750301e-12
-1.56525682220122e-12
-6.63515920301918e-12
-1.5416599491705e-12
-6.61661848121674e-12
-1.51806109208422e-12
-6.5704445696598e-12
-1.49464135978003e-12
-6.49769623100291e-12
-1.4714086115466e-12
-6.40027416197355e-12
-1.44853311585588e-12
-6.27933869446347e-12
-1.42600880888254e-12
-6.13683133147245e-12
-1.40399178826957e-12
-5.97391580337299e-12
-1.38246460799204e-12
-5.79247557717003e-12
-1.36157212432828e-12
-5.59360802183929e-12
-1.34129179361799e-12
-5.37908173405988e-12
-1.32175907300778e-12
-5.14990270577582e-12
-1.30295357104716e-12
-4.90770298021076e-12
-1.28501315948087e-12
-4.65338698021895e-12
-1.26793326551883e-12
-4.3884180803155e-12
-1.25186871746062e-12
-4.11352333497583e-12
-1.23685746429144e-12
-3.8298219298653e-12
-1.2231064596762e-12
-3.53753413877897e-12
-1.21074813739323e-12
-3.23685009323471e-12
-1.20012201104406e-12
-2.92652244273102e-12
-1.19158117011778e-12
-2.60433547835838e-12
-1.18579368976747e-12
-2.26553987973104e-12
-1.18363708453604e-12
-1.9032436868686e-12
-1.1865967424753e-12
-1.50770314071916e-12
-1.19699949473351e-12
-1.06808248913509e-12
-1.21932525829161e-12
-5.71700717124279e-13
-1.26278828167111e-12
1.64374229087682e-15
-1.34325687869637e-12
6.48026861806623e-13
-1.42791735214844e-12
2.33791388529764e-13
-3.7349511452153e-13
-3.21778425261034e-13
-4.71628635209301e-13
-2.29336580601595e-12
-2.6089265746882e-12
-1.5911457505407e-12
-3.03600483130545e-12
-4.18141453900291e-12
-3.40202609209594e-12
-4.11200613949313e-12
-3.79561913337234e-12
-3.96721059198392e-12
-4.22911945718951e-12
-3.87103556477904e-12
-4.69250230362135e-12
-3.80762572958362e-12
-5.16738753140222e-12
-3.76148641136461e-12
-5.63656663560601e-12
-3.72328924514541e-12
-6.08629460983432e-12
-3.68803668349261e-12
-6.50725664440058e-12
-3.65317130706711e-12
-6.89289042536807e-12
-3.61749025863024e-12
-7.23954736390755e-12
-3.58046865995637e-12
-7.54461044341786e-12
-3.54198004969029e-12
-7.80724083519155e-12
-3.50206074908837e-12
-8.02666078374553e-12
-3.46087059655599e-12
-8.20339475098977e-12
-3.41858485425913e-12
-8.3375898518291e-12
-3.37542435693866e-12
-8.43054377281172e-12
-3.33158522617305e-12
-8.4829755373296e-12
-3.28728610936738e-12
-8.49670494422423e-12
-3.24271286824004e-12
-8.47285752087415e-12
-3.19806801398529e-12
-8.41361466557332e-12
-3.15351955951112e-12
-8.32037281117621e-12
-3.10925086179726e-12
-8.1955196361508e-12
-3.06541278351259e-12
-8.0405829611234e-12
-3.02216976490669e-12
-7.85800263689052e-12
-2.97965622375978e-12
-7.64930943461285e-12
-2.93802030917743e-12
-7.41687049950095e-12
-2.89738522614838e-12
-7.1621325875876e-12
-2.85788918069119e-12
-6.88731760990608e-12
-2.81965092661195e-12
-6.59375307546785e-12
-2.78280946627295e-12
-6.28349117856896e-12
-2.74749691759318e-12
-5.95772967224642e-12
-2.71387671896029e-12
-5.61830936474992e-12
-2.68212860516257e-12
-5.26620328201285e-12
-2.65249348299939e-12
-4.90282158573348e-12
-2.62527853161998e-12
-4.52849689563575e-12
-2.60092434306873e-12
-4.14347054996093e-12
-2.58005792284625e-12
-3.74621906010009e-12
-2.56362550556654e-12
-3.3339451112897e-12
-2.55306109908805e-12
-2.9007032910575e-12
-2.55058795038117e-12
-2.43785257465872e-12
-2.55968334721877e-12
-1.93343845415024e-12
-2.58600806043031e-12
-1.37479964012892e-12
-2.6396118349447e-12
-7.47511307639171e-13
-2.74088291382263e-12
-1.603577610955e-14
-2.93425437826049e-12
8.2283746135416e-13
-3.14820574198608e-12
-1.35207287336648e-13
-3.68451814614846e-13
-1.09701708870194e-12
-3.40806372017518e-13
-4.03612455327333e-12
-2.12396653437286e-12
-2.59075156302301e-12
-2.39528574308783e-12
-6.17597254588891e-12
-2.68655775180641e-12
-5.94685206429872e-12
-3.01284424230087e-12
-5.71941664791256e-12
-3.3671891792616e-12
-5.58326676718702e-12
-3.74191274438648e-12
-5.49312863163719e-12
-4.12371559402049e-12
-5.42636727338788e-12
-4.4998108438199e-12
-5.37050159641108e-12
-4.85975673675139e-12
-5.31881423666189e-12
-5.19640930257852e-12
-5.26778589875728e-12
-5.50467412861307e-12
-5.21571507133869e-12
-5.78172264165533e-12
-5.16183321164212e-12
-6.02549986167186e-12
-5.10593568850696e-12
-6.23536244562468e-12
-5.04805481606855e-12
-6.41069359458102e-12
-4.98840714752217e-12
-6.55192253643988e-12
-4.92723458043607e-12
-6.65916325693841e-12
-4.86485010052451e-12
-6.73345836365898e-12
-4.80152953536455e-12
-6.77537733421835e-12
-4.73758718712746e-12
-6.78637911948054e-12
-4.67328424601101e-12
-6.76735807374265e-12
-4.60891225722041e-12
-6.72006179612974e-12
-4.54470620922618e-12
-6.6456017848435e-12
-4.4809300573635e-12
-6.54589033932297e-12
-4.41779283154709e-12
-6.42214461617357e-12
-4.35553199104184e-12
-6.27631865886047e-12
-4.29433358217328e-12
-6.10963286136934e-12
-4.23441324337395e-12
-5.92398356618534e-12
-4.17594175040138e-12
-5.72052542029139e-12
-4.1191217072469e-12
-5.50103967762328e-12
-4.06411961404777e-12
-5.2665883640391e-12
-4.01114039739668e-12
-5.01881974481971e-12
-3.9603692295049e-12
-4.7586972014175e-12
-3.91204474940972e-12
-4.48770672826422e-12
-3.86641675067156e-12
-4.20664314752249e-12
-3.82382713369901e-12
-3.91666445160208e-12
-3.78469578011541e-12
-3.61808030118216e-12
-3.74963029169614e-12
-3.31115592198911e-12
-3.71947736795889e-12
-2.99478432394247e-12
-3.69552193361976e-12
-2.66690654055577e-12
-3.6797044774116e-12
-2.32305245251599e-12
-3.67507194856122e-12
-1.95680510647405e-12
-3.68644480373288e-12
-1.55959590117787e-12
-3.72173608511829e-12
-1.12363462692519e-12
-3.79478282759756e-12
-6.43027704129121e-13
-3.93309964918767e-12
-9.99410668802125e-14
-4.20221318959928e-12
5.18914828936683e-13
-4.53631359017007e-12
-3.04970528258669e-13
-4.71474288214551e-13
-2.02261935670538e-12
-3.49971844597955e-13
-5.79423708735216e-12
-1.7105015747724e-12
-3.97995879509175e-12
-2.12403502345035e-12
-7.91386919843801e-12
-2.45866872425668e-12
-7.62810902806193e-12
-2.78654235972244e-12
-7.36132392026615e-12
-3.12949827104394e-12
-7.19810416913906e-12
-3.48602058964465e-12
-7.08732547971675e-12
-3.84613293624691e-12
-7.00315955984642e-12
-4.19926523422099e-12
-6.93140467602849e-12
-4.5364202892175e-12
-6.86430826553916e-12
-4.85135221719635e-12
-6.79776322413666e-12
-5.13951965331616e-12
-6.72975120882236e-12
-5.39841159232686e-12
-6.65937893019242e-12
-5.62616274452314e-12
-6.58640622349714e-12
-5.82221539416151e-12
-6.51090752865106e-12
-5.98599920591618e-12
-6.43315561901598e-12
-6.11793292038092e-12
-6.35348393668345e-12
-6.21811513008667e-12
-6.27228322879694e-12
-6.28753084948523e-12
-6.18992852227514e-12
-6.32670115615569e-12
-6.10681040553829e-12
-6.33699878235956e-12
-6.02328355951072e-12
-6.31924812365519e-12
-5.93970719267076e-12
-6.27509172006321e-12
-5.85640079134784e-12
-6.20555757506762e-12
-5.77368624286008e-12
-6.11244226942458e-12
-5.69184766004186e-12
-5.99687361025941e-12
-5.61117224355163e-12
-5.86068750276189e-12
-5.5319135215445e-12
-5.70501630948686e-12
-5.45433118343014e-12
-5.53164254977598e-12
-5.3786581630273e-12
-5.34163914611558e-12
-5.30513857610429e-12
-5.13668252372679e-12
-5.23399968111036e-12
-4.91776285157602e-12
-5.16548958844313e-12
-4.68643579043259e-12
-5.09985718364391e-12
-4.44360666324952e-12
-5.03739216314139e-12
-4.19068863365884e-12
-4.97841942058134e-12
-3.92844546418014e-12
-4.92335147909706e-12
-3.65800656363405e-12
-4.87271208902355e-12
-3.3797205996587e-12
-4.8272258973793e-12
-3.09394218204092e-12
-4.78791417169358e-12
-2.79979494808989e-12
-4.75629340718447e-12
-2.49562022017349e-12
-4.7346633185912e-12
-2.17766505951351e-12
-4.72661243843481e-12
-1.84067404146102e-12
-4.73783521955112e-12
-1.47806629822642e-12
-4.77759171553054e-12
-1.08587956177277e-12
-4.86160488009303e-12
-6.67996670834583e-13
-5.01911801437492e-12
-2.42166166136103e-13
-5.31324912378208e-12
1.3207426851908e-13
-5.64696579450773e-12
-3.17107654996352e-13
-9.33287530865642e-13
-2.94927996216482e-12
-3.67475855405816e-13
-7.50895404907053e-12
-1.4364501488032e-12
-5.60367959354838e-12
-1.99634116643949e-12
-9.45064205664955e-12
-2.38875161101792e-12
-9.19952799685777e-12
-2.74220981128249e-12
-8.92756615946336e-12
-3.09784534266253e-12
-8.74977322060264e-12
-3.46056851766253e-12
-8.62386898526051e-12
-3.82332814487003e-12
-8.5251140406155e-12
-4.17717913461304e-12
-8.43908129922884e-12
-4.51404667706224e-12
-8.35762909737819e-12
-4.82821460972378e-12
-8.27636214521229e-12
-5.11542861403383e-12
-8.19309299039951e-12
-5.37334394909857e-12
-8.10687055090158e-12
-5.60017645655759e-12
-8.0174555343897e-12
-5.7954185629719e-12
-7.92497563711879e-12
-5.95851598759831e-12
-7.82976900997365e-12
-6.08990110367862e-12
-7.73225746239418e-12
-6.18966862858465e-12
-7.63291191715666e-12
-6.25880606498638e-12
-7.53219985457567e-12
-6.29782501853624e-12
-7.43058898595115e-12
-6.30809746172864e-12
-7.328520002159e-12
-6.29043699613511e-12
-7.22642062555818e-12
-6.24648452368891e-12
-7.12468727859368e-12
-6.17725746954617e-12
-7.02370129824129e-12
-6.08455075421946e-12
-6.92381476724621e-12
-5.96948251951513e-12
-6.82536653965109e-12
-5.83388772502353e-12
-6.72867122888147e-12
-5.67889077527995e-12
-6.63403473049025e-12
-5.50627457978616e-12
-6.54174648607431e-12
-5.31710665343969e-12
-6.45209420973886e-12
-5.11306636129282e-12
-6.36536015505151e-12
-4.89514295629336e-12
-6.28183687810825e-12
-4.66490021568402e-12
-6.20183020492823e-12
-4.42325123130582e-12
-6.12567968991876e-12
-4.17162916561758e-12
-6.0537751630845e-12
-3.91082473507378e-12
-5.98659239394255e-12
-3.64201601434542e-12
-5.9247399233803e-12
-3.36562544908377e-12
-5.86903706354333e-12
-3.08213085208659e-12
-5.82063654652228e-12
-2.79085275048373e-12
-5.78122161451585e-12
-2.49045646715577e-12
-5.75333127674941e-12
-2.17772002835882e-12
-5.74088113310911e-12
-1.84828562782789e-12
-5.75001800944874e-12
-1.49719713992737e-12
-5.79050237074503e-12
-1.12388767085573e-12
-5.87812579908937e-12
-7.4081656211383e-13
-6.03960121767283e-12
-3.87981775283105e-13
-6.32316297014321e-12
-1.66450391125635e-13
-6.57831981551831e-12
-3.10019891355664e-13
-1.66544769143502e-12
-3.83917658377881e-12
-3.6258367304856e-13
-9.1946543253409e-12
-1.2702047279214e-12
-7.33750607309928e-12
-1.88557213260572e-12
-1.08929919262676e-11
-2.31965684806758e-12
-1.06938011002774e-11
-2.69658720831155e-12
-1.04352502729453e-11
-3.065048869872e-12
-1.02531251431679e-11
-3.43440491592503e-12
-1.01174439151541e-11
-3.8001909196294e-12
-1.00070202406863e-11
-4.15503682671829e-12
-9.90842409209789e-12
-4.49180772758992e-12
-9.81372222504088e-12
-4.80534171831657e-12
-9.718528778995e-12
-5.09169545111509e-12
-9.6206411541034e-12
-5.34870305084871e-12
-9.51912823177292e-12
-5.57467297668676e-12
-9.41379424685725e-12
-5.76915040092872e-12
-9.30483977082573e-12
-5.93160229597919e-12
-9.192680514594e-12
-6.06247304178042e-12
-9.07782939930089e-12
-6.16185655812695e-12
-8.96084109872436e-12
-6.23073989546142e-12
-8.84227319194117e-12
-6.2696277727104e-12
-8.72267138535006e-12
-6.27988826049812e-12
-8.60255845958526e-12
-6.26232686985966e-12
-8.48243100022036e-12
-6.21857995662832e-12
-8.36275800693413e-12
-6.14965727481551e-12
-8.24398052028719e-12
-6.05734960117984e-12
-8.12651458152386e-12
-5.94276861585472e-12
-8.01075114615854e-12
-5.8077462436125e-12
-7.89706210041508e-12
-5.65340237458861e-12
-7.78580018590218e-12
-5.48151864803072e-12
-7.67730758199744e-12
-5.29316084491784e-12
-7.57191612412991e-12
-5.09001010603806e-12
-7.46995901448561e-12
-4.8730586604204e-12
-7.37177267714577e-12
-4.64387798108135e-12
-7.27771445305882e-12
-4.40339340277418e-12
-7.18817043809809e-12
-4.15305891188958e-12
-7.10358577092853e-12
-3.89369812192543e-12
-7.02448980053324e-12
-3.62654125035438e-12
-6.95155636485472e-12
-3.35209395766885e-12
-6.88567376819174e-12
-3.07096641971214e-12
-6.82808143238808e-12
-2.78269337157532e-12
-6.78056046615499e-12
-2.48628474375313e-12
-6.74576862320999e-12
-2.1790776200234e-12
-6.72773837547168e-12
-1.85761934008843e-12
-6.73267739940573e-12
-1.51846461558041e-12
-6.77011631470962e-12
-1.16378695955363e-12
-6.85456571907004e-12
-8.1151015945729e-13
-7.0077700552023e-12
-5.10173577612033e-13
-7.26142221402563e-12
-3.4898073356716e-13
-7.42900419172941e-12
-3.21600410682686e-13
-2.5414094936778e-12
-4.72471720939481e-12
-3.47071173215596e-13
-1.08424559285869e-11
-1.16355598757127e-12
-9.08597671132649e-12
-1.79422818003597e-12
-1.22562587021717e-11
-2.25461072911075e-12
-1.21034133285155e-11
-2.65066293553758e-12
-1.18679422406191e-11
-3.0306889708118e-12
-1.1688687509206e-11
-3.40630727708838e-12
-1.15476382798308e-11
-3.77499843512322e-12
-1.1428220033189e-11
-4.13076770457398e-12
-1.13187460006838e-11
-4.46736797489858e-12
-1.12119403255939e-11
-4.78018385364436e-12
-1.11036811837337e-11
-5.06559048472431e-12
-1.09918928988792e-11
-5.32160614533534e-12
-1.08757402413146e-11
-5.5466386760334e-12
-1.07551129362138e-11
-5.74028708730733e-12
-1.06303045839187e-11
-5.90204277603171e-12
-1.05018192133255e-11
-6.03236047580366e-12
-1.03702639164251e-11
-6.13133484675589e-12
-1.02362782446945e-11
-6.19994981575129e-12
-1.01005076206157e-11
-6.23870431935301e-12
-9.96357412607171e-12
-6.24895965699015e-12
-9.82607900621943e-12
-6.23151436157844e-12
-9.68858533086852e-12
-6.18799753307865e-12
-9.55163116445128e-12
-6.11941256175271e-12
-9.41571498864989e-12
-6.0275436665463e-12
-9.28131351783917e-12
-5.9134976309107e-12
-9.14886802043207e-12
-5.77910130223791e-12
-9.01880475024605e-12
-5.62547180038922e-12
-8.89152171723342e-12
-5.45438789495913e-12
-8.76741131606199e-12
-5.26691557660116e-12
-8.64684789052068e-12
-5.06473654002237e-12
-8.53021258333957e-12
-4.84884811270973e-12
-8.41788321770637e-12
-4.62082871438389e-12
-8.31026424089117e-12
-4.38161833608824e-12
-8.2077830702956e-12
-4.13269178157897e-12
-8.11093178026622e-12
-3.87490869436371e-12
-8.02028140585442e-12
-3.60955272084727e-12
-7.93655272271957e-12
-3.33721723679697e-12
-7.86067522605287e-12
-3.05864774802376e-12
-7.79393158623223e-12
-2.77359820515261e-12
-7.73813213898796e-12
-2.4814223202076e-12
-7.69594135816451e-12
-2.18000128278422e-12
-7.6713212460366e-12
-1.86671365377692e-12
-7.67022148281593e-12
-1.53936050549322e-12
-7.70141449203587e-12
-1.20193260113894e-12
-7.77735800425434e-12
-8.74919047906779e-13
-7.91441547986584e-12
-6.06948200930751e-13
-8.1299266727963e-12
-4.66031175031861e-13
-8.22182648355203e-12
-3.43133369540874e-13
-3.46581918145632e-12
-5.59441501619896e-12
-3.29925923074562e-13
-1.24602986366953e-11
-1.09048228006145e-12
-1.08280034071122e-11
-1.72013661732391e-12
-1.35756302608084e-11
-2.19556709356124e-12
-1.34575782121285e-11
-2.60571493865208e-12
-1.32464991521781e-11
-2.99527985840211e-12
-1.30743022448388e-11
-3.37628881203207e-12
-1.29312770388901e-11
-3.74744902813976e-12
-1.28051811383035e-11
-4.10386890893257e-12
-1.26863881982182e-11
-4.44009008399159e-12
-1.25685713344927e-11
-4.7520089140487e-12
-1.24480661324418e-11
-5.03631088097873e-12
-1.23230434974308e-11
-5.29119562579886e-12
-1.21928331311187e-11
-5.5151720755801e-12
-1.20574515493426e-11
-5.70789188886596e-12
-1.19173068895718e-11
-5.86887226257664e-12
-1.1773005197534e-11
-5.99857604332887e-12
-1.16252523839866e-11
-6.09709934827564e-12
-1.1474776985018e-11
-6.16542023646011e-12
-1.13223111975228e-11
-6.20403239701451e-12
-1.11685542918595e-11
-6.21428754255704e-12
-1.10141829806192e-11
-6.19697788961561e-12
-1.08598266714136e-11
-6.1537225902757e-12
-1.070608877127e-11
-6.08551952294921e-12
-1.05535249455249e-11
-5.99414397529354e-12
-1.04026690433458e-11
-5.88069891110887e-12
-1.02540123458464e-11
-5.7470040393433e-12
-1.01080320742763e-11
-5.59417501427889e-12
-9.96517133661203e-12
-5.42398601450879e-12
-9.82586941322694e-12
-5.23750466810524e-12
-9.69054257946679e-12
-5.03641177304951e-12
-9.55961617457465e-12
-4.82171124705965e-12
-9.43350781339127e-12
-4.59498719762472e-12
-9.31266363722213e-12
-4.35719572128553e-12
-9.19754794215088e-12
-4.10983130326586e-12
-9.08869023643314e-12
-3.85379097499424e-12
-8.98669233375098e-12
-3.59041051928747e-12
-8.8923023539845e-12
-3.32037156736007e-12
-8.80646511311099e-12
-3.04455153284448e-12
-8.73046398343663e-12
-2.76291789423805e-12
-8.66607668771602e-12
-2.47514878083584e-12
-8.61587596888871e-12
-2.17962233529521e-12
-8.58360420216622e-12
-1.87442293753321e-12
-8.57472557601888e-12
-1.5582738410235e-12
-8.59694970681086e-12
-1.23615040705212e-12
-8.66043376652307e-12
-9.28859891692066e-13
-8.77647272430698e-12
-6.81550835750179e-13
-8.9526124133172e-12
-5.44167940540592e-13
-8.98418866222664e-12
-3.64332720201757e-13
-4.41257113322161e-12
-6.46573574087417e-12
-3.16536771748398e-13
-1.40260596802484e-11
-1.03943385465599e-12
-1.25163174392306e-11
-1.6600838523306e-12
-1.48287905111024e-11
-2.14270327268546e-12
-1.47354857589618e-11
-2.56261701038224e-12
-1.4548939446298e-11
-2.95947372062207e-12
-1.43859910692571e-11
-3.34470981891797e-12
-1.4243281819796e-11
-3.71769051946743e-12
-1.41123653259778e-11
-4.07434927829033e-12
-1.39856619930873e-11
-4.40989335508866e-12
-1.38579223865327e-11
-4.72067801631776e-12
-1.37260632271521e-11
-5.00367854652825e-12
-1.35885904976878e-11
-5.25726636902446e-12
-1.34450542209354e-11
-5.48004836879012e-12
-1.32956307617687e-11
-5.67172572718466e-12
-1.31408605975237e-11
-5.83184061666704e-12
-1.29814608335498e-11
-5.9608615525712e-12
-1.2818239587788e-11
-6.05888556447441e-12
-1.2652014521492e-11
-6.12688248077024e-12
-1.24836029894674e-11
-6.16534031608741e-12
-1.23137786640826e-11
-6.17559897181747e-12
-1.2143290598793e-11
-6.15844411030356e-12
-1.19728311555213e-11
-6.11548296953262e-12
-1.18030659267254e-11
-6.04770790640006e-12
-1.16346044010265e-11
-5.9568835835453e-12
-1.14680347066386e-11
-5.84410939016908e-12
-1.13038952634542e-11
-5.71119651722773e-12
-1.11427118421808e-11
-5.55925960073149e-12
-1.09849700207391e-11
-5.39006707983877e-12
-1.08311536251788e-11
-5.2046887928612e-12
-1.06817182460552e-11
-5.00480361332932e-12
-1.05371308198376e-11
-4.79142254793736e-12
-1.03978452652082e-11
-4.56613423974104e-12
-1.02643452764457e-11
-4.32991104764134e-12
-1.01371262005236e-11
-4.08426554840264e-12
-1.00167470062216e-11
-3.83013129416982e-12
-9.90382838206412e-12
-3.56889327140184e-12
-9.79912921547123e-12
-3.30131771364429e-12
-9.70358451243038e-12
-3.02840565390922e-12
-9.61844202053608e-12
-2.75032330243985e-12
-9.54539286070526e-12
-2.46704123490584e-12
-9.48684062448737e-12
-2.17736799921848e-12
-9.44619883198443e-12
-1.87994937201297e-12
-9.42830904964814e-12
-1.5741211281821e-12
-9.43969432202433e-12
-1.26515060291798e-12
-9.48828802860344e-12
-9.72978055597835e-13
-9.58147259622122e-12
-7.37958599712674e-13
-9.7198668508328e-12
-5.96963937711328e-13
-9.70455540608874e-12
-3.81259993855043e-13
-5.33899634649986e-12
-7.3101946134229e-12
-3.07218422385077e-13
-1.55448757182487e-11
-1.00211174444564e-12
-1.41588757378955e-11
-1.6112353375073e-12
-1.60399669050416e-11
-2.0960060970175e-12
-1.59624908771048e-11
-2.52186012983274e-12
-1.57969461801382e-11
-2.92377868440786e-12
-1.56438200353038e-11
-3.31196179105962e-12
-1.55029209609177e-11
-3.6859945082009e-12
-1.53686271031743e-11
-4.04239288623225e-12
-1.52352145635655e-11
-4.37690566128123e-12
-1.50985315797139e-11
-4.6862854577194e-12
-1.49561390036555e-11
-4.96776862929799e-12
-1.48069362857876e-11
-5.21988326007927e-12
-1.46507348333414e-11
-5.44132727988738e-12
-1.44878991117735e-11
-5.63184609269039e-12
-1.43191176518899e-11
-5.79100460850471e-12
-1.41452290436045e-11
-5.91927377656964e-12
-1.39671472004341e-11
-6.01675050506108e-12
-1.37857819314956e-11
-6.08439375935171e-12
-1.36020343500089e-11
-6.12268533475745e-12
-1.34167526350146e-11
-6.13295101154921e-12
-1.32307550457778e-11
-6.11596970104324e-12
-1.30447960944084e-11
-6.07333465830787e-12
-1.28595998466088e-11
-6.00603284148403e-12
-1.2675828852652e-11
-5.91581652982142e-12
-1.24941218792752e-11
-5.80378188433134e-12
-1.23150636686108e-11
-5.67173009794858e-12
-1.21392251015082e-11
-5.52077530994575e-12
-1.19671335026245e-11
-5.352678927894e-12
-1.17993139644763e-11
-5.16851358758455e-12
-1.16362603522582e-11
-4.96995493782788e-12
-1.14784773333648e-11
-4.75802137359084e-12
-1.13264532208203e-11
-4.53430449552851e-12
-1.11807040262371e-11
-4.29979251368544e-12
-1.10417516697865e-11
-4.05601347300378e-12
-1.09101757876951e-11
-3.80393543623593e-12
-1.07866061981551e-11
-3.54498746356833e-12
-1.06717960889258e-11
-3.2800139261057e-12
-1.05666495224301e-11
-3.01012677175643e-12
-1.0472346770559e-11
-2.73567029527453e-12
-1.03904504295547e-11
-2.45686760480032e-12
-1.03231370142362e-11
-2.17288418162335e-12
-1.02734243043993e-11
-1.88278620292976e-12
-1.02454707603568e-11
-1.58626249934526e-12
-1.02446312177977e-11
-1.28844963011648e-12
-1.0276909494424e-11
-1.0076627409795e-12
-1.03465688713748e-11
-7.79713880658615e-13
-1.0450736862714e-11
-6.3255312741653e-13
-1.03993674325429e-11
-3.9208268902016e-13
-6.24985129099338e-12
-8.14305603753934e-12
-3.02999154763471e-13
-1.69914062738748e-11
-9.75780853490042e-13
-1.57173198983159e-11
-1.57116862997615e-12
-1.71775341497413e-11
-2.05457625797912e-12
-1.71100681285997e-11
-2.48356873547418e-12
-1.69639164712875e-11
-2.88854674931232e-12
-1.68204930374582e-11
-3.27838132915938e-12
-1.66821822238977e-11
-3.65263445583611e-12
-1.65455648852074e-11
-4.0082151977861e-12
-1.64064838728307e-11
-4.34130035316781e-12
-1.62618160493123e-11
-4.64897725026789e-12
-1.61097774416007e-11
-4.928710256594e-12
-1.59496895229596e-11
-5.17916580698748e-12
-1.57816504624791e-11
-5.39912286302156e-12
-1.56062296958085e-11
-5.58836441319593e-12
-1.54242738510447e-11
-5.74647416381562e-12
-1.52367472610905e-11
-5.87392210878484e-12
-1.50446707309034e-11
-5.97080292535209e-12
-1.48490443923853e-11
-6.03806241399383e-12
-1.46508506694546e-11
-6.07617482262939e-12
-1.44510083771219e-11
-6.08645005448988e-12
-1.42504014965366e-11
-6.06965934904902e-12
-1.40498423221604e-11
-6.02738063205945e-12
-1.38501100834475e-11
-5.9605948621867e-12
-1.36519161984392e-11
-5.87104086274304e-12
-1.34559472321529e-11
-5.75981126693071e-12
-1.32628306322861e-11
-5.62869643854338e-12
-1.30731799228949e-11
-5.47880988498083e-12
-1.28875609776388e-11
-5.3119052775189e-12
-1.27065378284139e-11
-5.12905787667786e-12
-1.25306394606053e-11
-4.93193930499174e-12
-1.23604057583643e-11
-4.72157481713378e-12
-1.21963555223932e-11
-4.49955754707283e-12
-1.2039033461091e-11
-4.26689007429192e-12
-1.18889823216902e-11
-4.0251130507755e-12
-1.17467957955427e-11
-3.77522532150624e-12
-1.16131028286475e-11
-3.51869372974606e-12
-1.14886380432739e-11
-3.25643165948391e-12
-1.1374256309344e-11
-2.98964671176544e-12
-1.12710465368658e-11
-2.71883663222023e-12
-1.11804112188306e-11
-2.44443490675904e-12
-1.11042638145296e-11
-2.1658921171225e-12
-1.10451925983267e-11
-1.88257353049994e-12
-1.10066709855267e-11
-1.59433059194163e-12
-1.09929809448108e-11
-1.3058710453498e-12
-1.10085364585614e-11
-1.03378807344293e-12
-1.1055647644437e-11
-8.09641489557691e-13
-1.11289647925944e-11
-6.55202492870064e-13
-1.10495198366914e-11
-3.97617991014934e-13
-7.11429985588591e-12
-8.93242436566418e-12
-3.02190952122229e-13
-1.83736751346857e-11
-9.56389119678611e-13
-1.72095889402452e-11
-1.53812004599843e-12
-1.82667118710031e-11
-2.01800659213783e-12
-1.82040201552084e-11
-2.44770705480206e-12
-1.80732049995478e-11
-2.85396542288192e-12
-1.79386720606824e-11
-3.24422394272139e-12
-1.78033173099778e-11
-3.61786172258584e-12
-1.76651247346694e-11
-3.97204619835585e-12
-1.75212113496931e-11
-4.30328886669596e-12
-1.73693796195782e-11
-4.6089534563417e-12
-1.72084768857445e-11
-4.88669853482788e-12
-1.70382526815974e-11
-5.13530845907218e-12
-1.68591035036415e-11
-5.35363147521147e-12
-1.66718153433737e-11
-5.54148008501317e-12
-1.64773997610679e-11
-5.69845208311091e-12
-1.62769518616603e-11
-5.82501235768794e-12
-1.60716001461653e-11
-5.92125110754896e-12
-1.58624358525869e-11
-5.98809829827957e-12
-1.56505204275887e-11
-6.02601939997749e-12
-1.54368422112618e-11
-6.03630646131831e-12
-1.52223474126019e-11
-6.01972238965285e-12
-1.50079045532987e-11
-5.97782822680709e-12
-1.47943442669835e-11
-5.91159863846919e-12
-1.45824253087953e-11
-5.82275774334397e-12
-1.43728784080001e-11
-5.7123946202802e-12
-1.41663724278122e-11
-5.58228778785757e-12
-1.39635601867516e-11
-5.43355022347976e-12
-1.3765044768853e-11
-5.2679268993494e-12
-1.35714259384534e-11
-5.08649573088756e-12
-1.3383266350381e-11
-4.890923139054e-12
-1.32011375682593e-11
-4.68224078145324e-12
-1.30255867398434e-11
-4.46204136803966e-12
-1.28571824456594e-11
-4.2313401579685e-12
-1.26964844772366e-11
-3.99168666313648e-12
-1.25440933350676e-11
-3.74410610850203e-12
-1.24006295798629e-11
-3.49009546258451e-12
-1.22667974526956e-11
-3.23062657242767e-12
-1.21433890855404e-11
-2.96698552165809e-12
-1.20313833743511e-11
-2.6997977669584e-12
-1.1932003101612e-11
-2.42966557844153e-12
-1.18468791317639e-11
-2.15626074857076e-12
-1.17781666026564e-11
-1.87915067084451e-12
-1.17286916285487e-11
-1.59822005535077e-12
-1.17018102280616e-11
-1.31765647292448e-12
-1.17007220301064e-11
-1.05219582205637e-12
-1.17262393378785e-11
-8.29928007375746e-13
-1.17725904423716e-11
-6.68344112561257e-13
-1.16714586324831e-11
-3.97866550674804e-13
-7.94687209979988e-12
-9.6974703509692e-12
-3.05379163682286e-13
-1.96661751479608e-11
-9.43646354401028e-13
-1.85982815301142e-11
-1.51058074886343e-12
-1.92725248666256e-11
-1.98528029536754e-12
-1.92118749261041e-11
-2.41406970789221e-12
-1.90951548190112e-11
-2.82012423560087e-12
-1.89686745196311e-11
-3.20967399820472e-12
-1.88362728504051e-11
-3.58188231930071e-12
-1.86970068413409e-11
-3.93408780682763e-12
-1.85489833289835e-11
-4.26306306629591e-12
-1.83907972147505e-11
-4.56639742528082e-12
-1.8221878139356e-11
-4.84191122055635e-12
-1.80423899485289e-11
-5.08848627927481e-12
-1.78530265051088e-11
-5.30502724349824e-12
-1.76547911895605e-11
-5.49136757653216e-12
-1.74488612067403e-11
-5.64711340277064e-12
-1.72364606483167e-11
-5.77272035338389e-12
-1.70188234649329e-11
-5.8682711203403e-12
-1.67971276949065e-11
-5.93467747464731e-12
-1.65725100548689e-11
-5.97239427788073e-12
-1.63460231265326e-11
-5.98269422359112e-12
-1.61186713614505e-11
-5.96633068136563e-12
-1.5891374191304e-11
-5.92484679205378e-12
-1.56650101173175e-11
-5.85921014191609e-12
-1.54403804562561e-11
-5.77112945427672e-12
-1.52182570985179e-11
-5.6616897181932e-12
-1.49993461391683e-11
-5.53265709596046e-12
-1.47843371509805e-11
-5.38514365518708e-12
-1.45738668479648e-11
-5.22088516479539e-12
-1.43685683611358e-11
-5.04096169234654e-12
-1.41690345940822e-11
-4.84703362364453e-12
-1.39758662782508e-11
-4.64013790204702e-12
-1.37896351097423e-11
-4.42186510765364e-12
-1.36109305144935e-11
-4.193240612174e-12
-1.34403242486841e-11
-3.95581901214553e-12
-1.32784187989846e-11
-3.71064638735738e-12
-1.31258190587463e-11
-3.45924175476847e-12
-1.29831910965364e-11
-3.20262360990961e-12
-1.28512535426262e-11
-2.94213910300085e-12
-1.27308646399871e-11
-2.67851568413314e-12
-1.26230565810523e-11
-2.41248677646161e-12
-1.25291744970544e-11
-2.14389184583683e-12
-1.24509551124346e-11
-1.87243073806212e-12
-1.23906390803271e-11
-1.59794923254062e-12
-1.23508079162456e-11
-1.32404327113568e-12
-1.23337480610438e-11
-1.06385708065207e-12
-1.23396183586871e-11
-8.42293435589817e-13
-1.23619980621801e-11
-6.73574351569408e-13
-1.22435838680551e-11
-3.94271030740836e-13
-8.7189674498968e-12
-1.04057237581926e-11
-3.10688811366102e-13
-2.08805314139214e-11
-9.34740570541542e-13
-1.99069669229474e-11
-1.48752931203344e-12
-2.02230930318348e-11
-1.95608648781364e-12
-2.01614876889657e-11
-2.38244682730078e-12
-2.00552468634324e-11
-2.78702176569441e-12
-1.9935673093298e-11
-3.17485612552244e-12
-1.98060728953947e-11
-3.54487590629016e-12
-1.96660490266442e-11
-3.8945414263431e-12
-1.95144679562544e-11
-4.22083386259074e-12
-1.93505938879006e-11
-4.52152613659937e-12
-1.91743781963564e-11
-4.79457112824812e-12
-1.8986373502903e-11
-5.03892814005499e-12
-1.87875606512054e-11
-5.25354527467623e-12
-1.85791575049771e-11
-5.43826779466547e-12
-1.83625047335364e-11
-5.59270426109424e-12
-1.81389544466993e-11
-5.71729639943301e-12
-1.79098434636403e-11
-5.81211651461406e-12
-1.76764349289465e-11
-5.87805540903682e-12
-1.743993696705e-11
-5.91555585155635e-12
-1.72014642811812e-11
-5.92586934919436e-12
-1.69620753541864e-11
-5.90973895803377e-12
-1.67227384395288e-11
-5.86868860681844e-12
-1.64843757567343e-11
-5.80367844205764e-12
-1.62478292919328e-11
-5.71640081292211e-12
-1.60139083122969e-11
-5.60793650590448e-12
-1.57833545406433e-11
-5.48003853761621e-12