/*--------------------------------*- C++ -*----------------------------------*\
  =========                 |
  \\      /  F ield         | OpenFOAM: The Open Source CFD Toolbox
   \\    /   O peration     | Website:  https://openfoam.org
    \\  /    A nd           | Version:  10
     \\/     M anipulation  |
\*---------------------------------------------------------------------------*/
FoamFile
{
    format      ascii;
    class       volScalarField;
    location    "0.4";
    object      rho;
}
// * * * * * * * * * * * * * * * * * * * * * * * * * * * * * * * * * * * * * //

dimensions      [1 -3 0 0 0 0 0];

internalField   nonuniform List<scalar> 
2500
(
1.14911217957987
1.14963551282089
1.14966079719185
1.14966159251286
1.14966161877828
1.14966162164685
1.14966162293794
1.14966162453335
1.14966162627106
1.14966162698829
1.14966162818354
1.14966162910041
1.14966162971636
1.1496616305025
1.14966163123842
1.14966163207882
1.14966163255588
1.14966163333715
1.14966163399674
1.1496616342873
1.14966163473807
1.14966163535352
1.14966163572918
1.14966163580881
1.14966163613034
1.14966163665711
1.14966163706433
1.14966163708728
1.14966163707903
1.14966163739921
1.14966163751186
1.14966163739398
1.14966163757237
1.14966163770582
1.14966163763138
1.14966163750106
1.14966163720041
1.14966163695241
1.14966163668446
1.14966163634108
1.14966163580904
1.14966163529113
1.14966163467115
1.14966163417259
1.14966163290878
1.1496616308623
1.14966159415805
1.14966059500165
1.14963456814832
1.14911170237934
1.15873953287774
1.15900039487019
1.15910521259703
1.15910882629198
1.15910894211302
1.15910894635875
1.15910894672715
1.15910894699379
1.15910894726298
1.15910894743906
1.15910894766609
1.15910894787636
1.15910894805226
1.15910894821956
1.15910894842133
1.15910894868036
1.1591089489031
1.15910894913238
1.15910894933157
1.15910894949789
1.15910894968103
1.15910894985028
1.15910894997175
1.15910895011001
1.15910895027542
1.15910895047397
1.15910895064623
1.15910895076289
1.15910895088197
1.15910895104187
1.15910895115951
1.15910895128738
1.15910895141856
1.15910895152884
1.15910895161209
1.15910895165375
1.15910895169477
1.15910895174399
1.15910895181274
1.15910895185447
1.15910895183086
1.15910895180345
1.1591089517783
1.15910895174577
1.15910895139713
1.15910894642139
1.15910882026481
1.15910523014059
1.15899966203237
1.15870876894544
1.16074926511482
1.16082404025181
1.16085265575943
1.16085603195218
1.16085615439361
1.16085615905355
1.16085615931245
1.16085615941265
1.16085615951631
1.1608561596195
1.16085615972779
1.16085615984936
1.16085615997003
1.16085616009222
1.16085616022887
1.16085616037878
1.16085616052698
1.16085616067919
1.16085616083698
1.1608561609862
1.16085616113835
1.16085616129443
1.16085616144017
1.1608561615798
1.16085616172152
1.16085616187818
1.16085616202388
1.16085616216038
1.16085616229986
1.16085616243433
1.16085616256008
1.16085616267894
1.16085616279604
1.16085616290956
1.16085616300752
1.16085616310667
1.16085616319626
1.16085616328093
1.1608561633639
1.16085616343364
1.16085616349349
1.16085616354815
1.16085616359691
1.16085616363203
1.16085616349673
1.16085615971392
1.16085605588333
1.16085305645328
1.1608246281544
1.16073396333262
1.16111468979633
1.16113145771139
1.16113478167134
1.16113563984895
1.16113568144022
1.16113568336641
1.1611356835102
1.16113568358608
1.16113568366877
1.16113568375945
1.1611356838587
1.1611356839687
1.16113568408417
1.16113568420527
1.16113568433431
1.16113568447085
1.16113568461119
1.1611356847542
1.16113568490064
1.16113568504607
1.16113568519368
1.16113568534418
1.16113568549338
1.16113568563972
1.16113568578531
1.16113568593022
1.16113568607217
1.16113568621202
1.16113568634776
1.16113568647954
1.16113568660649
1.16113568672832
1.16113568684612
1.16113568695762
1.16113568706283
1.16113568716499
1.16113568725986
1.16113568734923
1.16113568743287
1.16113568750972
1.16113568757999
1.16113568764363
1.16113568770149
1.16113568775122
1.16113568775852
1.16113568688555
1.16113566047312
1.16113484999003
1.16113165795405
1.16111037685346
1.16117670038437
1.16118002208593
1.16118041455415
1.16118058872857
1.16118059927344
1.16118059988188
1.16118059996858
1.16118060003936
1.16118060011911
1.16118060020845
1.16118060030696
1.1611806004141
1.16118060052865
1.16118060065017
1.16118060077806
1.16118060091174
1.16118060104962
1.16118060119104
1.16118060133554
1.16118060148134
1.16118060162877
1.16118060177713
1.1611806019252
1.16118060207242
1.16118060221798
1.1611806023617
1.16118060250332
1.16118060264184
1.16118060277667
1.16118060290795
1.16118060303476
1.16118060315692
1.16118060327444
1.16118060338649
1.16118060349308
1.16118060359443
1.16118060368979
1.16118060377929
1.16118060386289
1.16118060394052
1.16118060401173
1.16118060407673
1.16118060413557
1.1611806041876
1.16118060422569
1.16118060407328
1.16118059849133
1.16118042542204
1.16118008225162
1.16117572783665
1.1611867753792
1.16118738473656
1.16118743435181
1.16118746619115
1.16118746851086
1.16118746869896
1.16118746876521
1.16118746883458
1.16118746891379
1.1611874690027
1.16118746910079
1.16118746920739
1.16118746932164
1.16118746944284
1.16118746957018
1.16118746970287
1.16118746983999
1.16118746998072
1.16118747012431
1.16118747026983
1.16118747041674
1.16118747056428
1.16118747071165
1.16118747085825
1.16118747100348
1.16118747114675
1.16118747128757
1.16118747142544
1.16118747155984
1.16118747169038
1.16118747181665
1.16118747193841
1.16118747205531
1.16118747216702
1.16118747227332
1.16118747237413
1.1611874724692
1.16118747255839
1.16118747264165
1.16118747271887
1.16118747278996
1.16118747285488
1.16118747291352
1.16118747296567
1.16118747300981
1.16118747301254
1.16118747198314
1.16118743920488
1.1611874033621
1.16118658375191
1.16118835286493
1.16118845892814
1.1611884658486
1.16118847134297
1.16118847183165
1.16118847191067
1.1611884719709
1.16118847203979
1.16118847211873
1.16118847220736
1.1611884723051
1.16118847241126
1.16118847252508
1.16118847264579
1.16118847277257
1.16118847290461
1.16118847304106
1.16118847318113
1.16118847332401
1.16118847346892
1.16118847361513
1.16118847376193
1.1611884739086
1.16118847405451
1.16118847419904
1.16118847434164
1.16118847448175
1.1611884746189
1.16118847475262
1.16118847488249
1.16118847500814
1.16118847512924
1.16118847524548
1.1611884753566
1.16118847546237
1.1611884755626
1.16118847565711
1.1611884757458
1.16118847582854
1.16118847590528
1.16118847597594
1.16118847604044
1.16118847609868
1.1611884761505
1.16118847619546
1.16118847622752
1.16118847607259
1.16118847032542
1.16118846668012
1.16118832088431
1.16118858156333
1.16118859933314
1.1611886004045
1.16118860133361
1.16118860145431
1.16118860150835
1.16118860156699
1.16118860163562
1.16118860171432
1.16118860180263
1.16118860189997
1.16118860200567
1.16118860211897
1.16118860223909
1.16118860236524
1.16118860249659
1.16118860263232
1.16118860277164
1.16118860291374
1.16118860305787
1.16118860320328
1.16118860334926
1.16118860349512
1.16118860364022
1.16118860378394
1.16118860392572
1.16118860406503
1.16118860420138
1.16118860433431
1.16118860446342
1.16118860458832
1.16118860470868
1.16118860482421
1.16118860493463
1.16118860503972
1.16118860513928
1.16118860523316
1.16118860532123
1.16118860540338
1.16118860547955
1.16118860554966
1.16118860561364
1.16118860567139
1.16118860572276
1.16118860576749
1.16118860580441
1.16118860580446
1.1611886048641
1.16118860451183
1.1611885796219
1.16118860080131
1.16118860369446
1.16118860388099
1.16118860405161
1.1611886041032
1.16118860415197
1.16118860421015
1.16118860427858
1.161188604357
1.16118860444495
1.16118860454184
1.161188604647
1.1611886047597
1.16118860487916
1.16118860500458
1.16118860513515
1.16118860527008
1.16118860540855
1.16118860554978
1.16118860569302
1.16118860583753
1.16118860598259
1.16118860612752
1.1611886062717
1.1611886064145
1.16118860655537
1.16118860669377
1.16118860682923
1.16118860696127
1.16118860708951
1.16118860721356
1.1611886073331
1.16118860744781
1.16118860755745
1.16118860766177
1.16118860776059
1.16118860785375
1.16118860794113
1.16118860802261
1.16118860809813
1.16118860816762
1.16118860823101
1.1611886082882
1.16118860833904
1.16118860838331
1.16118860842067
1.16118860844644
1.16118860831552
1.16118860829588
1.16118860418407
1.16118858804826
1.1611885885101
1.16118858855274
1.16118858860102
1.16118858864027
1.16118858868797
1.16118858874594
1.16118858881415
1.16118858889226
1.16118858897979
1.16118858907617
1.16118858918074
1.16118858929276
1.16118858941148
1.16118858953609
1.16118858966581
1.16118858979982
1.16118858993736
1.16118859007762
1.16118859021987
1.16118859036337
1.16118859050741
1.16118859065132
1.16118859079447
1.16118859093625
1.16118859107611
1.16118859121351
1.16118859134796
1.16118859147904
1.16118859160631
1.16118859172943
1.16118859184804
1.16118859196186
1.16118859207062
1.1611885921741
1.1611885922721
1.16118859236446
1.16118859245107
1.16118859253181
1.16118859260661
1.16118859267542
1.16118859273815
1.16118859279471
1.16118859284496
1.16118859288869
1.16118859292569
1.16118859295524
1.16118859295504
1.16118859296926
1.16118859231425
1.16118857047741
1.16118857055147
1.16118857057001
1.16118857059907
1.16118857063622
1.16118857068367
1.16118857074149
1.16118857080945
1.1611885708872
1.16118857097428
1.1611885710701
1.161188571174
1.16118857128528
1.16118857140317
1.16118857152689
1.16118857165566
1.16118857178869
1.16118857192519
1.16118857206439
1.16118857220555
1.16118857234794
1.16118857249087
1.16118857263366
1.16118857277568
1.16118857291634
1.16118857305509
1.16118857319138
1.16118857332475
1.16118857345476
1.16118857358098
1.16118857370307
1.16118857382068
1.16118857393351
1.16118857404132
1.16118857414387
1.16118857424098
1.16118857433247
1.16118857441824
1.16118857449817
1.16118857457219
1.16118857464024
1.16118857470225
1.16118857475813
1.16118857480773
1.16118857485086
1.16118857488732
1.16118857491703
1.16118857493698
1.16118857495451
1.16118857486001
1.1611885521939
1.16118855220754
1.16118855222221
1.16118855224841
1.16118855228524
1.16118855233259
1.16118855239025
1.16118855245793
1.16118855253529
1.16118855262186
1.16118855271706
1.16118855282024
1.16118855293071
1.1611885530477
1.16118855317045
1.16118855329819
1.16118855343014
1.16118855356552
1.16118855370356
1.16118855384355
1.16118855398474
1.16118855412646
1.16118855426803
1.16118855440884
1.16118855454829
1.16118855468583
1.16118855482093
1.16118855495313
1.16118855508197
1.16118855520707
1.16118855532804
1.16118855544456
1.16118855555634
1.16118855566312
1.16118855576467
1.1611885558608
1.16118855595136
1.16118855603622
1.16118855611527
1.16118855618845
1.16118855625568
1.16118855631691
1.16118855637204
1.16118855642094
1.16118855646341
1.16118855649928
1.16118855652854
1.16118855655113
1.16118855656863
1.16118855656289
1.16118853381105
1.16118853381573
1.16118853383002
1.16118853385591
1.16118853389271
1.16118853393998
1.16118853399745
1.16118853406483
1.16118853414177
1.16118853422778
1.16118853432231
1.16118853442471
1.16118853453429
1.16118853465032
1.16118853477203
1.16118853489866
1.16118853502944
1.16118853516362
1.16118853530043
1.16118853543914
1.16118853557905
1.16118853571947
1.16118853585974
1.16118853599924
1.16118853613739
1.16118853627364
1.16118853640747
1.1611885365384
1.16118853666601
1.16118853678988
1.16118853690966
1.16118853702502
1.16118853713566
1.16118853724134
1.16118853734182
1.16118853743691
1.16118853752646
1.16118853761035
1.16118853768846
1.16118853776073
1.16118853782709
1.16118853788748
1.16118853794181
1.16118853798995
1.16118853803172
1.16118853806694
1.16118853809563
1.16118853811814
1.16118853813516
1.16118853814291
1.1611885154193
1.16118851542299
1.16118851543748
1.16118851546345
1.16118851550026
1.16118851554745
1.16118851560471
1.16118851567176
1.16118851574823
1.16118851583365
1.16118851592745
1.16118851602902
1.16118851613766
1.16118851625265
1.16118851637325
1.16118851649871
1.16118851662825
1.16118851676114
1.16118851689663
1.16118851703399
1.16118851717253
1.16118851731157
1.16118851745045
1.16118851758857
1.16118851772534
1.16118851786022
1.16118851799268
1.16118851812228
1.16118851824857
1.16118851837115
1.16118851848966
1.16118851860378
1.16118851871322
1.16118851881773
1.16118851891707
1.16118851901106
1.16118851909954
1.16118851918239
1.16118851925951
1.16118851933082
1.16118851939625
1.16118851945575
1.16118851950922
1.16118851955655
1.16118851959756
1.1611885196321
1.16118851966016
1.16118851968215
1.1611885196986
1.16118851970801
1.16118849703161
1.16118849703552
1.16118849705034
1.16118849707645
1.16118849711328
1.16118849716037
1.1611884972174
1.16118849728409
1.16118849736006
1.16118849744484
1.16118849753788
1.16118849763856
1.1611884977462
1.16118849786009
1.16118849797951
1.16118849810372
1.16118849823195
1.16118849836349
1.16118849849758
1.16118849863352
1.16118849877062
1.16118849890819
1.16118849904561
1.16118849918227
1.16118849931758
1.161188499451
1.16118849958204
1.16118849971022
1.16118849983512
1.16118849995633
1.16118850007351
1.16118850018633
1.1611885002945
1.16118850039776
1.16118850049591
1.16118850058873
1.16118850067609
1.16118850075785
1.16118850083391
1.1611885009042
1.16118850096865
1.16118850102721
1.16118850107978
1.16118850112625
1.16118850116647
1.16118850120027
1.16118850122767
1.16118850124905
1.16118850126488
1.16118850127412
1.16118847864935
1.16118847865369
1.16118847866883
1.1611884786951
1.16118847873194
1.1611884787789
1.16118847883569
1.161188478902
1.16118847897743
1.16118847906153
1.16118847915376
1.1611884792535
1.16118847936009
1.16118847947284
1.16118847959102
1.16118847971391
1.16118847984077
1.16118847997088
1.16118848010351
1.16118848023796
1.16118848037354
1.16118848050959
1.16118848064547
1.16118848078059
1.16118848091437
1.16118848104628
1.16118848117582
1.16118848130252
1.16118848142596
1.16118848154574
1.16118848166152
1.16118848177297
1.16118848187981
1.16118848198178
1.16118848207867
1.16118848217028
1.16118848225645
1.16118848233707
1.16118848241203
1.16118848248125
1.16118848254467
1.16118848260223
1.16118848265386
1.16118848269943
1.16118848273881
1.16118848277184
1.16118848279855
1.16118848281928
1.16118848283447
1.16118848284322
1.16118846027235
1.16118846027714
1.16118846029265
1.16118846031906
1.16118846035589
1.16118846040273
1.16118846045925
1.16118846052514
1.16118846060001
1.1611884606834
1.16118846077478
1.16118846087353
1.16118846097902
1.16118846109057
1.16118846120746
1.16118846132898
1.16118846145441
1.16118846158303
1.16118846171414
1.16118846184703
1.16118846198103
1.16118846211548
1.16118846224977
1.16118846238329
1.16118846251548
1.16118846264581
1.16118846277378
1.16118846289894
1.16118846302085
1.16118846313915
1.16118846325347
1.1611884633635
1.16118846346895
1.16118846356957
1.16118846366514
1.16118846375548
1.16118846384043
1.16118846391986
1.16118846399367
1.16118846406178
1.16118846412413
1.16118846418065
1.16118846423128
1.16118846427592
1.16118846431441
1.16118846434664
1.16118846437262
1.16118846439268
1.1611884644072
1.16118846441542
1.16118844190002
1.16118844190529
1.16118844192113
1.16118844194768
1.16118844198451
1.1611884420312
1.16118844208743
1.16118844215289
1.16118844222717
1.16118844230982
1.1611884424003
1.16118844249803
1.16118844260238
1.16118844271267
1.16118844282822
1.16118844294832
1.16118844307227
1.16118844319935
1.16118844332888
1.16118844346015
1.16118844359252
1.16118844372533
1.16118844385796
1.16118844398982
1.16118844412036
1.16118844424905
1.1611884443754
1.16118844449896
1.16118844461931
1.16118844473606
1.16118844484887
1.16118844495742
1.16118844506144
1.16118844516066
1.16118844525488
1.1611884453439
1.16118844542758
1.16118844550577
1.16118844557839
1.16118844564535
1.16118844570658
1.16118844576203
1.16118844581163
1.16118844585529
1.16118844589287
1.16118844592427
1.1611884459495
1.16118844596885
1.16118844598269
1.16118844599034
1.16118842353188
1.16118842353762
1.16118842355382
1.16118842358052
1.16118842361732
1.16118842366385
1.16118842371978
1.16118842378477
1.16118842385843
1.16118842394031
1.16118842402987
1.16118842412655
1.16118842422971
1.16118842433871
1.16118842445287
1.16118842457151
1.16118842469392
1.16118842481942
1.16118842494731
1.16118842507693
1.16118842520761
1.16118842533872
1.16118842546964
1.1611884255998
1.16118842572863
1.16118842585564
1.16118842598032
1.16118842610223
1.16118842622096
1.16118842633612
1.16118842644737
1.16118842655441
1.16118842665694
1.16118842675472
1.16118842684754
1.16118842693521
1.16118842701757
1.1611884270945
1.16118842716588
1.16118842723165
1.16118842729173
1.16118842734607
1.16118842739461
1.16118842743726
1.1611884274739
1.16118842750444
1.16118842752888
1.16118842754751
1.16118842756064
1.16118842756772
1.16118840516728
1.1611884051735
1.16118840519003
1.16118840521686
1.16118840525363
1.16118840529999
1.16118840535559
1.16118840542011
1.16118840549313
1.1611884055742
1.16118840566282
1.1611884057584
1.16118840586035
1.16118840596803
1.16118840608077
1.1611884061979
1.16118840631874
1.16118840644261
1.16118840656883
1.16118840669674
1.16118840682569
1.16118840695506
1.16118840708423
1.16118840721264
1.16118840733973
1.16118840746501
1.16118840758798
1.1611884077082
1.16118840782527
1.1611884079388
1.16118840804846
1.16118840815393
1.16118840825495
1.16118840835125
1.16118840844264
1.16118840852891
1.16118840860993
1.16118840868555
1.16118840875567
1.16118840882022
1.16118840887912
1.16118840893232
1.16118840897977
1.16118840902137
1.16118840905705
1.1611884090867
1.16118840911034
1.16118840912822
1.16118840914064
1.16118840914712
1.16118838680569
1.16118838681239
1.16118838682928
1.16118838685623
1.16118838689296
1.16118838693912
1.16118838699439
1.16118838705841
1.16118838713077
1.16118838721102
1.16118838729866
1.16118838739313
1.16118838749383
1.16118838760015
1.16118838771144
1.16118838782703
1.16118838794627
1.16118838806848
1.16118838819299
1.16118838831917
1.16118838844635
1.16118838857394
1.16118838870132
1.16118838882794
1.16118838895326
1.16118838907677
1.16118838919799
1.16118838931649
1.16118838943186
1.16118838954373
1.16118838965176
1.16118838975564
1.1611883898551
1.1611883899499
1.16118839003982
1.16118839012468
1.16118839020431
1.1611883902786
1.16118839034744
1.16118839041073
1.16118839046843
1.16118839052047
1.16118839056679
1.16118839060733
1.16118839064201
1.16118839067075
1.16118839069358
1.1611883907107
1.16118839072237
1.16118839072826
1.16118836844644
1.16118836845361
1.16118836847084
1.16118836849791
1.16118836853459
1.16118836858055
1.16118836863546
1.16118836869896
1.16118836877065
1.16118836885006
1.1611883689367
1.16118836903003
1.16118836912947
1.16118836923441
1.16118836934422
1.16118836945825
1.16118836957586
1.16118836969638
1.16118836981916
1.16118836994356
1.16118837006896
1.16118837019473
1.16118837032031
1.16118837044511
1.16118837056862
1.16118837069034
1.16118837080978
1.16118837092653
1.16118837104018
1.16118837115036
1.16118837125673
1.16118837135899
1.16118837145688
1.16118837155015
1.16118837163858
1.16118837172199
1.16118837180023
1.16118837187316
1.16118837194068
1.16118837200271
1.16118837205918
1.16118837211003
1.16118837215521
1.16118837219467
1.16118837222834
1.16118837225615
1.16118837227814
1.16118837229448
1.16118837230541
1.16118837231069
1.161188350089
1.16118835009665
1.16118835011422
1.1611883501414
1.16118835017801
1.16118835022376
1.16118835027831
1.16118835034128
1.16118835041226
1.16118835049082
1.16118835057645
1.16118835066862
1.16118835076678
1.16118835087032
1.16118835097863
1.16118835109108
1.16118835120704
1.16118835132585
1.16118835144688
1.16118835156949
1.16118835169307
1.16118835181702
1.16118835194076
1.16118835206373
1.16118835218541
1.16118835230531
1.16118835242296
1.16118835253794
1.16118835264984
1.1611883527583
1.161188352863
1.16118835296363
1.16118835305992
1.16118835315163
1.16118835323855
1.16118835332051
1.16118835339733
1.16118835346889
1.16118835353508
1.16118835359582
1.16118835365104
1.16118835370069
1.16118835374471
1.16118835378307
1.16118835381571
1.16118835384258
1.16118835386372
1.16118835387929
1.16118835388944
1.16118835389411
1.16118833173268
1.1611883317408
1.16118833175869
1.16118833178597
1.16118833182251
1.16118833186803
1.1611883319222
1.16118833198463
1.16118833205491
1.16118833213259
1.1611883322172
1.1611883323082
1.16118833240506
1.16118833250719
1.161188332614
1.16118833272486
1.16118833283915
1.16118833295624
1.1611883330755
1.16118833319632
1.16118833331807
1.16118833344018
1.16118833356206
1.16118833368319
1.16118833380303
1.1611883339211
1.16118833403694
1.16118833415013
1.16118833426027
1.16118833436701
1.16118833447002
1.161188334569
1.16118833466368
1.16118833475383
1.16118833483923
1.16118833491971
1.1611883349951
1.16118833506528
1.16118833513013
1.16118833518957
1.16118833524353
1.16118833529196
1.16118833533482
1.16118833537207
1.16118833540367
1.16118833542959
1.16118833544987
1.16118833546464
1.16118833547404
1.16118833547808
1.16118831337694
1.16118831338553
1.16118831340374
1.16118831343112
1.16118831346757
1.16118831351286
1.16118831356664
1.16118831362851
1.16118831369808
1.16118831377488
1.16118831385845
1.16118831394828
1.16118831404384
1.16118831414455
1.16118831424984
1.1611883143591
1.16118831447172
1.16118831458709
1.16118831470458
1.16118831482358
1.1611883149435
1.16118831506376
1.16118831518379
1.16118831530306
1.16118831542105
1.16118831553728
1.16118831565131
1.1611883157627
1.16118831587108
1.16118831597609
1.1611883160774
1.16118831617473
1.16118831626779
1.16118831635637
1.16118831644025
1.16118831651925
1.1611883165932
1.16118831666199
1.16118831672549
1.16118831678363
1.16118831683632
1.16118831688353
1.16118831692521
1.16118831696134
1.16118831699189
1.16118831701686
1.16118831703628
1.16118831705024
1.16118831705887
1.16118831706229
1.1611882950211
1.16118829503014
1.16118829504866
1.16118829507611
1.16118829511248
1.16118829515752
1.16118829521089
1.16118829527221
1.16118829534105
1.16118829541697
1.1611882954995
1.16118829558815
1.1611882956824
1.1611882957817
1.16118829588548
1.16118829599314
1.16118829610409
1.16118829621773
1.16118829633345
1.16118829645065
1.16118829656874
1.16118829668715
1.16118829680532
1.16118829692274
1.16118829703888
1.16118829715328
1.16118829726549
1.16118829737509
1.16118829748171
1.16118829758498
1.1611882976846
1.16118829778027
1.16118829787172
1.16118829795873
1.16118829804108
1.1611882981186
1.16118829819112
1.16118829825852
1.16118829832067
1.1611882983775
1.16118829842893
1.16118829847491
1.16118829851541
1.16118829855042
1.16118829857992
1.16118829860393
1.16118829862248
1.16118829863564
1.1611882986435
1.1611882986463
1.16118827666461
1.1611882766741
1.16118827669292
1.16118827672045
1.16118827675671
1.16118827680149
1.16118827685446
1.16118827691521
1.16118827698332
1.16118827705835
1.16118827713985
1.16118827722733
1.16118827732027
1.16118827741816
1.16118827752042
1.16118827762649
1.16118827773578
1.1611882778477
1.16118827796166
1.16118827807706
1.16118827819332
1.1611882783099
1.16118827842623
1.16118827854179
1.16118827865609
1.16118827876867
1.16118827887907
1.16118827898689
1.16118827909175
1.1611882791933
1.16118827929123
1.16118827938525
1.16118827947509
1.16118827956053
1.16118827964136
1.16118827971741
1.1611882797885
1.16118827985451
1.16118827991532
1.16118827997084
1.16118828002101
1.16118828006577
1.16118828010509
1.16118828013898
1.16118828016743
1.16118828019048
1.16118828020817
1.16118828022053
1.16118828022762
1.1611882802298
1.1611882583068
1.16118825831673
1.16118825833583
1.16118825836342
1.16118825839956
1.16118825844408
1.16118825849663
1.16118825855681
1.16118825862419
1.16118825869834
1.1611882587788
1.16118825886511
1.16118825895676
1.16118825905324
1.16118825915401
1.1611882592585
1.16118825936614
1.16118825947636
1.16118825958856
1.16118825970218
1.16118825981664
1.16118825993139
1.16118826004589
1.16118826015962
1.1611882602721
1.16118826038286
1.16118826049147
1.16118826059752
1.16118826070064
1.16118826080048
1.16118826089674
1.16118826098912
1.16118826107737
1.16118826116126
1.16118826124058
1.16118826131516
1.16118826138483
1.16118826144946
1.16118826150894
1.16118826156317
1.16118826161208
1.16118826165563
1.16118826169378
1.16118826172655
1.16118826175396
1.16118826177606
1.16118826179289
1.16118826180446
1.16118826181079
1.16118826181236
1.16118823994714
1.16118823995749
1.16118823997688
1.16118824000451
1.16118824004053
1.16118824008477
1.1611882401369
1.1611882401965
1.16118824026315
1.16118824033642
1.16118824041586
1.16118824050101
1.16118824059138
1.16118824068648
1.16118824078576
1.16118824088869
1.16118824099471
1.16118824110324
1.16118824121372
1.16118824132557
1.16118824143825
1.16118824155119
1.16118824166388
1.16118824177581
1.16118824188649
1.16118824199546
1.16118824210229
1.16118824220659
1.16118824230799
1.16118824240615
1.16118824250074
1.16118824259151
1.16118824267818
1.16118824276054
1.16118824283837
1.1611882429115
1.16118824297977
1.16118824304304
1.1611882431012
1.16118824315415
1.16118824320182
1.16118824324416
1.16118824328116
1.16118824331283
1.16118824333921
1.16118824336036
1.16118824337634
1.16118824338713
1.16118824339269
1.16118824339366
1.16118822158498
1.16118822159573
1.16118822161537
1.16118822164304
1.16118822167892
1.16118822172288
1.16118822177459
1.16118822183361
1.16118822189954
1.16118822197193
1.16118822205035
1.16118822213436
1.16118822222347
1.1611882223172
1.16118822241503
1.16118822251642
1.16118822262084
1.16118822272771
1.16118822283649
1.16118822294661
1.16118822305753
1.16118822316871
1.16118822327962
1.16118822338976
1.16118822349867
1.16118822360588
1.16118822371097
1.16118822381355
1.16118822391325
1.16118822400975
1.16118822410272
1.16118822419189
1.16118822427702
1.16118822435786
1.16118822443423
1.16118822450594
1.16118822457283
1.16118822463476
1.16118822469162
1.16118822474331
1.16118822478975
1.16118822483091
1.16118822486677
1.16118822489735
1.16118822492271
1.16118822494294
1.16118822495808
1.16118822496809
1.16118822497292
1.16118822497328
1.1611882032198
1.16118820323094
1.16118820325082
1.16118820327852
1.16118820331425
1.16118820335792
1.16118820340919
1.16118820346765
1.16118820353285
1.16118820360438
1.16118820368181
1.16118820376469
1.16118820385256
1.16118820394495
1.16118820404135
1.16118820414124
1.16118820424408
1.16118820434933
1.16118820445644
1.16118820456487
1.16118820467406
1.1611882047835
1.16118820489267
1.16118820500107
1.16118820510824
1.16118820521372
1.16118820531711
1.161188205418
1.16118820551605
1.16118820561091
1.16118820570228
1.1611882057899
1.1611882058735
1.16118820595287
1.1611882060278
1.16118820609811
1.16118820616365
1.16118820622427
1.16118820627985
1.1611882063303
1.16118820637555
1.16118820641555
1.16118820645029
1.1611882064798
1.16118820650417
1.16118820652348
1.1611882065378
1.16118820654706
1.16118820655115
1.16118820655094
1.16118818485097
1.16118818486248
1.16118818488258
1.16118818491028
1.16118818494586
1.16118818498924
1.16118818504008
1.16118818509796
1.16118818516245
1.16118818523313
1.16118818530957
1.16118818539135
1.16118818547801
1.16118818556909
1.1611881856641
1.16118818576251
1.16118818586382
1.16118818596749
1.16118818607298
1.16118818617975
1.16118818628726
1.16118818639501
1.16118818650247
1.16118818660917
1.16118818671464
1.16118818681844
1.16118818692016
1.16118818701941
1.16118818711584
1.16118818720911
1.16118818729893
1.16118818738503
1.16118818746715
1.16118818754507
1.1611881876186
1.16118818768755
1.16118818775177
1.1611881878111
1.16118818786545
1.16118818791469
1.16118818795877
1.16118818799763
1.16118818803127
1.16118818805975
1.16118818808314
1.16118818810157
1.16118818811509
1.16118818812361
1.161188188127
1.16118818812621
1.161188166478
1.16118816648987
1.16118816651017
1.16118816653788
1.16118816657329
1.16118816661636
1.16118816666676
1.16118816672408
1.16118816678786
1.16118816685771
1.1611881669332
1.1611881670139
1.16118816709938
1.16118816718919
1.16118816728283
1.16118816737982
1.16118816747964
1.16118816758177
1.16118816768567
1.16118816779083
1.16118816789671
1.16118816800281
1.16118816810862
1.16118816821367
1.16118816831749
1.16118816841966
1.16118816851975
1.16118816861741
1.16118816871226
1.16118816880399
1.1611881688923
1.16118816897692
1.1611881690576
1.16118816913412
1.16118816920629
1.16118816927392
1.16118816933685
1.16118816939494
1.16118816944807
1.16118816949615
1.16118816953908
1.16118816957684
1.16118816960943
1.16118816963689
1.16118816965934
1.16118816967691
1.16118816968966
1.16118816969747
1.16118816970016
1.16118816969883
1.16118814810032
1.16118814811252
1.161188148133
1.16118814816068
1.16118814819592
1.16118814823868
1.16118814828865
1.1611881483454
1.16118814840849
1.16118814847753
1.16118814855208
1.16118814863174
1.16118814871608
1.16118814880465
1.16118814889698
1.16118814899258
1.16118814909096
1.1611881491916
1.16118814929397
1.16118814939757
1.16118814950187
1.16118814960638
1.16118814971059
1.16118814981404
1.16118814991627
1.16118815001685
1.16118815011538
1.16118815021149
1.16118815030482
1.16118815039506
1.1611881504819
1.16118815056509
1.16118815064438
1.16118815071955
1.1611881507904
1.16118815085675
1.16118815091844
1.16118815097534
1.1611881510273
1.16118815107424
1.16118815111608
1.16118815115277
1.16118815118433
1.16118815121082
1.16118815123236
1.1611881512491
1.16118815126111
1.16118815126823
1.16118815127026
1.16118815126839
1.16118812971746
1.16118812972996
1.16118812975061
1.16118812977826
1.16118812981331
1.16118812985576
1.16118812990529
1.16118812996149
1.16118813002391
1.16118813009215
1.1611881301658
1.16118813024445
1.16118813032768
1.16118813041505
1.16118813050611
1.16118813060039
1.16118813069737
1.16118813079657
1.16118813089748
1.16118813099958
1.16118813110236
1.16118813120533
1.161188131308
1.1611881314099
1.1611881315106
1.16118813160966
1.16118813170668
1.1611881318013
1.16118813189317
1.16118813198197
1.16118813206741
1.16118813214923
1.16118813222718
1.16118813230104
1.16118813237063