/*--------------------------------*- C++ -*----------------------------------*\
  =========                 |
  \\      /  F ield         | OpenFOAM: The Open Source CFD Toolbox
   \\    /   O peration     | Website:  https://openfoam.org
    \\  /    A nd           | Version:  10
     \\/     M anipulation  |
\*---------------------------------------------------------------------------*/
FoamFile
{
    format      ascii;
    class       volScalarField;
    location    "0.4";
    object      T;
}
// * * * * * * * * * * * * * * * * * * * * * * * * * * * * * * * * * * * * * //

dimensions      [0 0 0 1 0 0 0];

internalField   nonuniform List<scalar> 
2500
(
303.152845723932
303.014845463967
303.008181292337
303.007971681656
303.007964768591
303.007964024964
303.007963699941
303.007963297497
303.00796286026
303.007962694577
303.007962405342
303.007962191735
303.007962059497
303.007961884246
303.007961723856
303.00796153734
303.007961447769
303.00796127899
303.007961143037
303.007961104896
303.007961024882
303.007960901626
303.007960841542
303.00796085929
303.007960812923
303.007960711951
303.007960641837
303.007960672222
303.007960709926
303.007960660058
303.007960663772
303.007960727048
303.007960710957
303.007960705358
303.00796075314
303.007960814187
303.007960918623
303.007961007642
303.007961100351
303.007961211354
303.007961370471
303.007961524236
303.00796170324
303.007961848544
303.007962193777
303.007962743482
303.007972425869
303.008235773292
303.015095655474
303.152972820123
300.634103891234
300.566438664949
300.539258485439
300.538321515789
300.538291494697
300.53829040617
300.538290325783
300.538290274548
300.538290225339
300.538290202838
300.538290169546
300.538290142834
300.538290127072
300.538290115366
300.538290096333
300.538290063848
300.538290041947
300.538290019309
300.538290005221
300.538290000202
300.53828999117
300.538289985896
300.538289992985
300.53828999553
300.538289990679
300.53828997673
300.538289968949
300.538289974812
300.53828997915
300.538289971901
300.538289974506
300.538289973271
300.538289969903
300.538289970617
300.53828997694
300.538289992597
300.538290006928
300.538290017604
300.538290021664
300.538290031156
300.538290055995
300.538290080205
300.538290102185
300.538290124391
300.538290226814
300.538291527177
300.538324245982
300.539255117229
300.566629902714
300.642086977171
300.113578309551
300.094246321293
300.086848874464
300.085976118833
300.085944476659
300.085943284349
300.08594323253
300.085943224492
300.085943218239
300.085943214668
300.085943212183
300.085943208492
300.085943207061
300.085943207058
300.08594320492
300.085943200743
300.085943198178
300.085943195528
300.085943192185
300.085943191597
300.085943190597
300.085943188736
300.085943189525
300.0859431917
300.085943192978
300.085943189891
300.08594318899
300.085943189694
300.085943188734
300.085943188068
300.085943188557
300.085943189639
300.085943189907
300.085943189766
300.085943192253
300.085943192983
300.085943194695
300.085943196161
300.085943196513
300.085943198716
300.085943201887
300.085943204793
300.085943207582
300.085943212215
300.085943259164
300.08594424722
300.08597109624
300.086746469735
300.094095522956
300.11753585141
300.019122123658
300.014789542993
300.013930699
300.013708969668
300.013698232759
300.013697747369
300.013697725314
300.013697723554
300.013697722707
300.013697722341
300.013697722159
300.013697721419
300.013697721284
300.013697721504
300.013697721274
300.013697720483
300.013697719878
300.013697719533
300.013697719043
300.013697719353
300.013697719442
300.013697718941
300.013697718748
300.013697719101
300.013697719292
300.013697719154
300.013697719136
300.013697718889
300.01369771881
300.013697718756
300.01369771885
300.013697719084
300.013697719094
300.013697719397
300.01369771993
300.013697719811
300.013697720087
300.013697720264
300.013697720377
300.013697720677
300.013697721091
300.013697721615
300.013697721998
300.013697722804
300.013697732839
300.013697968532
300.013704801319
300.013914220431
300.014738985976
300.020237729898
300.003095359803
300.002237163165
300.002135768272
300.002090775039
300.002088060098
300.002087915193
300.00208790788
300.002087907421
300.002087907301
300.00208790724
300.002087907196
300.002087907127
300.002087907154
300.002087907183
300.002087907156
300.002087907004
300.002087906928
300.002087906882
300.002087906778
300.002087906875
300.002087906889
300.002087906817
300.002087906795
300.002087906796
300.00208790687
300.002087906916
300.002087906861
300.002087906835
300.002087906869
300.002087906828
300.002087906842
300.002087906875
300.002087906845
300.002087906897
300.00208790697
300.002087906955
300.002087907005
300.002087907052
300.002087907081
300.002087907093
300.002087907179
300.00208790727
300.002087907325
300.002087907466
300.00208790948
300.002087958931
300.002089409384
300.002134130171
300.002222796842
300.003347810287
300.000487624404
300.00033019298
300.000317377701
300.000309158218
300.00030856834
300.00030853203
300.000308529988
300.000308529865
300.000308529844
300.000308529838
300.000308529831
300.000308529818
300.000308529827
300.00030852983
300.000308529827
300.000308529806
300.000308529792
300.000308529784
300.000308529771
300.000308529792
300.000308529792
300.000308529779
300.000308529782
300.00030852979
300.000308529795
300.000308529801
300.0003085298
300.000308529793
300.000308529791
300.000308529791
300.000308529802
300.000308529799
300.00030852979
300.000308529798
300.000308529813
300.000308529812
300.000308529815
300.000308529823
300.000308529826
300.000308529833
300.000308529845
300.000308529857
300.000308529869
300.000308529893
300.000308530263
300.000308539559
300.000308813748
300.000317288845
300.00032655426
300.000538309427
300.000075303961
300.000047902089
300.00004611735
300.00004470429
300.000044587478
300.000044579348
300.000044578842
300.000044578811
300.000044578807
300.000044578806
300.000044578805
300.000044578803
300.000044578804
300.000044578805
300.000044578805
300.000044578801
300.0000445788
300.000044578799
300.000044578797
300.000044578799
300.000044578799
300.000044578798
300.000044578799
300.000044578801
300.000044578802
300.000044578802
300.000044578802
300.000044578801
300.0000445788
300.000044578802
300.000044578803
300.000044578802
300.000044578802
300.000044578803
300.000044578805
300.000044578805
300.000044578805
300.000044578806
300.000044578807
300.000044578808
300.00004457881
300.000044578811
300.000044578813
300.000044578817
300.000044578881
300.00004458051
300.000044628695
300.000046120057
300.000047066961
300.00008473748
300.000011453872
300.000006863222
300.000006589697
300.000006356132
300.0000063344
300.000006332717
300.000006332602
300.000006332595
300.000006332594
300.000006332594
300.000006332594
300.000006332593
300.000006332593
300.000006332594
300.000006332594
300.000006332593
300.000006332593
300.000006332593
300.000006332592
300.000006332593
300.000006332593
300.000006332593
300.000006332593
300.000006332593
300.000006332594
300.000006332594
300.000006332594
300.000006332594
300.000006332593
300.000006332593
300.000006332594
300.000006332594
300.000006332594
300.000006332594
300.000006332594
300.000006332594
300.000006332594
300.000006332594
300.000006332594
300.000006332594
300.000006332595
300.000006332595
300.000006332595
300.000006332596
300.000006332606
300.000006332878
300.00000634093
300.000006590332
300.000006686371
300.000013120029
300.00000172143
300.000000974339
300.000000929487
300.000000891918
300.000000888052
300.000000887723
300.000000887699
300.000000887697
300.000000887697
300.000000887697
300.000000887697
300.000000887697
300.000000887697
300.000000887697
300.000000887697
300.000000887697
300.000000887697
300.000000887697
300.000000887697
300.000000887697
300.000000887697
300.000000887697
300.000000887697
300.000000887697
300.000000887697
300.000000887697
300.000000887697
300.000000887697
300.000000887697
300.000000887697
300.000000887697
300.000000887697
300.000000887697
300.000000887697
300.000000887697
300.000000887697
300.000000887697
300.000000887697
300.000000887697
300.000000887697
300.000000887697
300.000000887697
300.000000887697
300.000000887697
300.000000887699
300.000000887743
300.00000088904
300.00000092922
300.000000939215
300.000002004627
300.000000256238
300.000000137385
300.000000129778
300.000000123854
300.000000123188
300.000000123127
300.000000123122
300.000000123122
300.000000123122
300.000000123122
300.000000123122
300.000000123122
300.000000123122
300.000000123122
300.000000123122
300.000000123122
300.000000123122
300.000000123122
300.000000123122
300.000000123122
300.000000123122
300.000000123122
300.000000123122
300.000000123122
300.000000123122
300.000000123122
300.000000123122
300.000000123122
300.000000123122
300.000000123122
300.000000123122
300.000000123122
300.000000123122
300.000000123122
300.000000123122
300.000000123122
300.000000123122
300.000000123122
300.000000123122
300.000000123122
300.000000123122
300.000000123122
300.000000123122
300.000000123122
300.000000123122
300.000000123129
300.000000123332
300.000000129623
300.000000130756
300.000000302983
300.00000003785
300.000000019282
300.000000017979
300.000000017059
300.000000016947
300.000000016936
300.000000016935
300.000000016935
300.000000016935
300.000000016935
300.000000016935
300.000000016935
300.000000016935
300.000000016935
300.000000016935
300.000000016935
300.000000016935
300.000000016935
300.000000016935
300.000000016935
300.000000016935
300.000000016935
300.000000016935
300.000000016935
300.000000016935
300.000000016935
300.000000016935
300.000000016935
300.000000016935
300.000000016935
300.000000016935
300.000000016935
300.000000016935
300.000000016935
300.000000016935
300.000000016935
300.000000016935
300.000000016935
300.000000016935
300.000000016935
300.000000016935
300.000000016935
300.000000016935
300.000000016935
300.000000016935
300.000000016936
300.000000016967
300.00000001793
300.000000018081
300.00000004539
300.000000005566
300.000000002705
300.000000002482
300.00000000234
300.000000002322
300.00000000232
300.00000000232
300.00000000232
300.00000000232
300.00000000232
300.00000000232
300.00000000232
300.00000000232
300.00000000232
300.00000000232
300.00000000232
300.00000000232
300.00000000232
300.00000000232
300.00000000232
300.00000000232
300.00000000232
300.00000000232
300.00000000232
300.00000000232
300.00000000232
300.00000000232
300.00000000232
300.00000000232
300.00000000232
300.00000000232
300.00000000232
300.00000000232
300.00000000232
300.00000000232
300.00000000232
300.00000000232
300.00000000232
300.00000000232
300.00000000232
300.00000000232
300.00000000232
300.00000000232
300.00000000232
300.00000000232
300.00000000232
300.000000002325
300.00000000247
300.000000002495
300.000000006759
300.000000000826
300.000000000388
300.000000000348
300.000000000327
300.000000000324
300.000000000323
300.000000000323
300.000000000323
300.000000000323
300.000000000323
300.000000000323
300.000000000323
300.000000000323
300.000000000323
300.000000000323
300.000000000323
300.000000000323
300.000000000323
300.000000000323
300.000000000323
300.000000000323
300.000000000323
300.000000000323
300.000000000323
300.000000000323
300.000000000323
300.000000000323
300.000000000323
300.000000000323
300.000000000323
300.000000000323
300.000000000323
300.000000000323
300.000000000323
300.000000000323
300.000000000323
300.000000000323
300.000000000323
300.000000000323
300.000000000323
300.000000000323
300.000000000323
300.000000000323
300.000000000323
300.000000000323
300.000000000323
300.000000000324
300.000000000346
300.000000000352
300.000000001012
300.000000000134
300.000000000065
300.000000000056
300.000000000053
300.000000000052
300.000000000052
300.000000000052
300.000000000052
300.000000000052
300.000000000052
300.000000000052
300.000000000052
300.000000000052
300.000000000052
300.000000000052
300.000000000052
300.000000000052
300.000000000052
300.000000000052
300.000000000052
300.000000000052
300.000000000052
300.000000000052
300.000000000052
300.000000000052
300.000000000052
300.000000000052
300.000000000052
300.000000000052
300.000000000052
300.000000000052
300.000000000052
300.000000000052
300.000000000052
300.000000000052
300.000000000052
300.000000000052
300.000000000052
300.000000000052
300.000000000052
300.000000000052
300.000000000052
300.000000000052
300.000000000052
300.000000000052
300.000000000052
300.000000000052
300.000000000056
300.000000000059
300.000000000163
300.000000000034
300.000000000021
300.000000000017
300.000000000016
300.000000000016
300.000000000016
300.000000000016
300.000000000016
300.000000000016
300.000000000016
300.000000000016
300.000000000016
300.000000000016
300.000000000016
300.000000000016
300.000000000016
300.000000000016
300.000000000016
300.000000000016
300.000000000016
300.000000000016
300.000000000016
300.000000000016
300.000000000016
300.000000000016
300.000000000016
300.000000000016
300.000000000016
300.000000000016
300.000000000016
300.000000000016
300.000000000016
300.000000000016
300.000000000016
300.000000000016
300.000000000016
300.000000000016
300.000000000016
300.000000000016
300.000000000016
300.000000000016
300.000000000016
300.000000000016
300.000000000016
300.000000000016
300.000000000016
300.000000000016
300.000000000016
300.000000000019
300.000000000038
300.000000000019
300.000000000014
300.000000000011
300.000000000011
300.000000000011
300.000000000011
300.000000000011
300.000000000011
300.000000000011
300.000000000011
300.000000000011
300.000000000011
300.000000000011
300.000000000011
300.000000000011
300.000000000011
300.000000000011
300.000000000011
300.000000000011
300.000000000011
300.000000000011
300.000000000011
300.000000000011
300.000000000011
300.000000000011
300.000000000011
300.000000000011
300.000000000011
300.000000000011
300.000000000011
300.000000000011
300.000000000011
300.000000000011
300.000000000011
300.000000000011
300.000000000011
300.000000000011
300.000000000011
300.000000000011
300.000000000011
300.000000000011
300.000000000011
300.000000000011
300.000000000011
300.000000000011
300.000000000011
300.000000000011
300.000000000011
300.000000000014
300.00000000002
300.000000000017
300.000000000013
300.000000000011
300.00000000001
300.00000000001
300.00000000001
300.00000000001
300.00000000001
300.00000000001
300.00000000001
300.00000000001
300.00000000001
300.00000000001
300.00000000001
300.00000000001
300.00000000001
300.00000000001
300.00000000001
300.00000000001
300.00000000001
300.00000000001
300.00000000001
300.00000000001
300.00000000001
300.00000000001
300.00000000001
300.00000000001
300.00000000001
300.00000000001
300.00000000001
300.00000000001
300.00000000001
300.00000000001
300.00000000001
300.00000000001
300.00000000001
300.00000000001
300.00000000001
300.00000000001
300.00000000001
300.00000000001
300.00000000001
300.00000000001
300.00000000001
300.00000000001
300.00000000001
300.00000000001
300.00000000001
300.000000000013
300.000000000017
300.000000000017
300.000000000013
300.00000000001
300.00000000001
300.00000000001
300.00000000001
300.00000000001
300.00000000001
300.00000000001
300.00000000001
300.00000000001
300.00000000001
300.00000000001
300.00000000001
300.00000000001
300.00000000001
300.00000000001
300.00000000001
300.00000000001
300.00000000001
300.00000000001
300.00000000001
300.00000000001
300.00000000001
300.00000000001
300.00000000001
300.00000000001
300.00000000001
300.00000000001
300.00000000001
300.00000000001
300.00000000001
300.00000000001
300.00000000001
300.00000000001
300.00000000001
300.00000000001
300.00000000001
300.00000000001
300.00000000001
300.00000000001
300.00000000001
300.00000000001
300.00000000001
300.00000000001
300.00000000001
300.00000000001
300.00000000001
300.000000000013
300.000000000017
300.000000000017
300.000000000013
300.00000000001
300.00000000001
300.00000000001
300.00000000001
300.00000000001
300.00000000001
300.00000000001
300.00000000001
300.00000000001
300.00000000001
300.00000000001
300.00000000001
300.00000000001
300.00000000001
300.00000000001
300.00000000001
300.00000000001
300.00000000001
300.00000000001
300.00000000001
300.00000000001
300.00000000001
300.00000000001
300.00000000001
300.00000000001
300.00000000001
300.00000000001
300.00000000001
300.00000000001
300.00000000001
300.00000000001
300.00000000001
300.00000000001
300.00000000001
300.00000000001
300.00000000001
300.00000000001
300.00000000001
300.00000000001
300.00000000001
300.00000000001
300.00000000001
300.00000000001
300.00000000001
300.00000000001
300.00000000001
300.000000000013
300.000000000017
300.000000000017
300.000000000013
300.00000000001
300.00000000001
300.00000000001
300.00000000001
300.00000000001
300.00000000001
300.00000000001
300.00000000001
300.00000000001
300.00000000001
300.00000000001
300.00000000001
300.00000000001
300.00000000001
300.00000000001
300.00000000001
300.00000000001
300.00000000001
300.00000000001
300.00000000001
300.00000000001
300.00000000001
300.00000000001
300.00000000001
300.00000000001
300.00000000001
300.00000000001
300.00000000001
300.00000000001
300.00000000001
300.00000000001
300.00000000001
300.00000000001
300.00000000001
300.00000000001
300.00000000001
300.00000000001
300.00000000001
300.00000000001
300.00000000001
300.00000000001
300.00000000001
300.00000000001
300.00000000001
300.00000000001
300.00000000001
300.000000000013
300.000000000017
300.000000000017
300.000000000013
300.00000000001
300.00000000001
300.00000000001
300.00000000001
300.00000000001
300.00000000001
300.00000000001
300.00000000001
300.00000000001
300.00000000001
300.00000000001
300.00000000001
300.00000000001
300.00000000001
300.00000000001
300.00000000001
300.00000000001
300.00000000001
300.00000000001
300.00000000001
300.00000000001
300.00000000001
300.00000000001
300.00000000001
300.00000000001
300.00000000001
300.00000000001
300.00000000001
300.00000000001
300.00000000001
300.00000000001
300.00000000001
300.00000000001
300.00000000001
300.00000000001
300.00000000001
300.00000000001
300.00000000001
300.00000000001
300.00000000001
300.00000000001
300.00000000001
300.00000000001
300.00000000001
300.00000000001
300.00000000001
300.000000000013
300.000000000017
300.000000000017
300.000000000013
300.00000000001
300.00000000001
300.00000000001
300.00000000001
300.00000000001
300.00000000001
300.00000000001
300.00000000001
300.00000000001
300.00000000001
300.00000000001
300.00000000001
300.00000000001
300.00000000001
300.00000000001
300.00000000001
300.00000000001
300.00000000001
300.00000000001
300.00000000001
300.00000000001
300.00000000001
300.00000000001
300.00000000001
300.00000000001
300.00000000001
300.00000000001
300.00000000001
300.00000000001
300.00000000001
300.00000000001
300.00000000001
300.00000000001
300.00000000001
300.00000000001
300.00000000001
300.00000000001
300.00000000001
300.00000000001
300.00000000001
300.00000000001
300.00000000001
300.00000000001
300.00000000001
300.00000000001
300.00000000001
300.000000000013
300.000000000017
300.000000000017
300.000000000013
300.00000000001
300.00000000001
300.00000000001
300.00000000001
300.00000000001
300.00000000001
300.00000000001
300.00000000001
300.00000000001
300.00000000001
300.00000000001
300.00000000001
300.00000000001
300.00000000001
300.00000000001
300.00000000001
300.00000000001
300.00000000001
300.00000000001
300.00000000001
300.00000000001
300.00000000001
300.00000000001
300.00000000001
300.00000000001
300.00000000001
300.00000000001
300.00000000001
300.00000000001
300.00000000001
300.00000000001
300.00000000001
300.00000000001
300.00000000001
300.00000000001
300.00000000001
300.00000000001
300.00000000001
300.00000000001
300.00000000001
300.00000000001
300.00000000001
300.00000000001
300.00000000001
300.00000000001
300.00000000001
300.000000000013
300.000000000017
300.000000000017
300.000000000013
300.00000000001
300.00000000001
300.00000000001
300.00000000001
300.00000000001
300.00000000001
300.00000000001
300.00000000001
300.00000000001
300.00000000001
300.00000000001
300.00000000001
300.00000000001
300.00000000001
300.00000000001
300.00000000001
300.00000000001
300.00000000001
300.00000000001
300.00000000001
300.00000000001
300.00000000001
300.00000000001
300.00000000001
300.00000000001
300.00000000001
300.00000000001
300.00000000001
300.00000000001
300.00000000001
300.00000000001
300.00000000001
300.00000000001
300.00000000001
300.00000000001
300.00000000001
300.00000000001
300.00000000001
300.00000000001
300.00000000001
300.00000000001
300.00000000001
300.00000000001
300.00000000001
300.00000000001
300.00000000001
300.000000000013
300.000000000017
300.000000000017
300.000000000013
300.00000000001
300.00000000001
300.00000000001
300.00000000001
300.00000000001
300.00000000001
300.00000000001
300.00000000001
300.00000000001
300.00000000001
300.00000000001
300.00000000001
300.00000000001
300.00000000001
300.00000000001
300.00000000001
300.00000000001
300.00000000001
300.00000000001
300.00000000001
300.00000000001
300.00000000001
300.00000000001
300.00000000001
300.00000000001
300.00000000001
300.00000000001
300.00000000001
300.00000000001
300.00000000001
300.00000000001
300.00000000001
300.00000000001
300.00000000001
300.00000000001
300.00000000001
300.00000000001
300.00000000001
300.00000000001
300.00000000001
300.00000000001
300.00000000001
300.00000000001
300.00000000001
300.00000000001
300.00000000001
300.000000000013
300.000000000017
300.000000000017
300.000000000013
300.00000000001
300.00000000001
300.00000000001
300.00000000001
300.00000000001
300.00000000001
300.00000000001
300.00000000001
300.00000000001
300.00000000001
300.00000000001
300.00000000001
300.00000000001
300.00000000001
300.00000000001
300.00000000001
300.00000000001
300.00000000001
300.00000000001
300.00000000001
300.00000000001
300.00000000001
300.00000000001
300.00000000001
300.00000000001
300.00000000001
300.00000000001
300.00000000001
300.00000000001
300.00000000001
300.00000000001
300.00000000001
300.00000000001
300.00000000001
300.00000000001
300.00000000001
300.00000000001
300.00000000001
300.00000000001
300.00000000001
300.00000000001
300.00000000001
300.00000000001
300.00000000001
300.00000000001
300.00000000001
300.000000000013
300.000000000017
300.000000000017
300.000000000013
300.00000000001
300.00000000001
300.00000000001
300.00000000001
300.00000000001
300.00000000001
300.00000000001
300.00000000001
300.00000000001
300.00000000001
300.00000000001
300.00000000001
300.00000000001
300.00000000001
300.00000000001
300.00000000001
300.00000000001
300.00000000001
300.00000000001
300.00000000001
300.00000000001
300.00000000001
300.00000000001
300.00000000001
300.00000000001
300.00000000001
300.00000000001
300.00000000001
300.00000000001
300.00000000001
300.00000000001
300.00000000001
300.00000000001
300.00000000001
300.00000000001
300.00000000001
300.00000000001
300.00000000001
300.00000000001
300.00000000001
300.00000000001
300.00000000001
300.00000000001
300.00000000001
300.00000000001
300.00000000001
300.000000000013
300.000000000017
300.000000000017
300.000000000013
300.00000000001
300.00000000001
300.00000000001
300.00000000001
300.00000000001
300.00000000001
300.00000000001
300.00000000001
300.00000000001
300.00000000001
300.00000000001
300.00000000001
300.00000000001
300.00000000001
300.00000000001
300.00000000001
300.00000000001
300.00000000001
300.00000000001
300.00000000001
300.00000000001
300.00000000001
300.00000000001
300.00000000001
300.00000000001
300.00000000001
300.00000000001
300.00000000001
300.00000000001
300.00000000001
300.00000000001
300.00000000001
300.00000000001
300.00000000001
300.00000000001
300.00000000001
300.00000000001
300.00000000001
300.00000000001
300.00000000001
300.00000000001
300.00000000001
300.00000000001
300.00000000001
300.00000000001
300.00000000001
300.000000000013
300.000000000017
300.000000000017
300.000000000013
300.00000000001
300.00000000001
300.00000000001
300.00000000001
300.00000000001
300.00000000001
300.00000000001
300.00000000001
300.00000000001
300.00000000001
300.00000000001
300.00000000001
300.00000000001
300.00000000001
300.00000000001
300.00000000001
300.00000000001
300.00000000001
300.00000000001
300.00000000001
300.00000000001
300.00000000001
300.00000000001
300.00000000001
300.00000000001
300.00000000001
300.00000000001
300.00000000001
300.00000000001
300.00000000001
300.00000000001
300.00000000001
300.00000000001
300.00000000001
300.00000000001
300.00000000001
300.00000000001
300.00000000001
300.00000000001
300.00000000001
300.00000000001
300.00000000001
300.00000000001
300.00000000001
300.00000000001
300.00000000001
300.000000000013
300.000000000017
300.000000000017
300.000000000013
300.00000000001
300.00000000001
300.00000000001
300.00000000001
300.00000000001
300.00000000001
300.00000000001
300.00000000001
300.00000000001
300.00000000001
300.00000000001
300.00000000001
300.00000000001
300.00000000001
300.00000000001
300.00000000001
300.00000000001
300.00000000001
300.00000000001
300.00000000001
300.00000000001
300.00000000001
300.00000000001
300.00000000001
300.00000000001
300.00000000001
300.00000000001
300.00000000001
300.00000000001
300.00000000001
300.00000000001
300.00000000001
300.00000000001
300.00000000001
300.00000000001
300.00000000001
300.00000000001
300.00000000001
300.00000000001
300.00000000001
300.00000000001
300.00000000001
300.00000000001
300.00000000001
300.00000000001
300.00000000001
300.000000000013
300.000000000017
300.000000000017
300.000000000013
300.00000000001
300.00000000001
300.00000000001
300.00000000001
300.00000000001
300.00000000001
300.00000000001
300.00000000001
300.00000000001
300.00000000001
300.00000000001
300.00000000001
300.00000000001
300.00000000001
300.00000000001
300.00000000001
300.00000000001
300.00000000001
300.00000000001
300.00000000001
300.00000000001
300.00000000001
300.00000000001
300.00000000001
300.00000000001
300.00000000001
300.00000000001
300.00000000001
300.00000000001
300.00000000001
300.00000000001
300.00000000001
300.00000000001
300.00000000001
300.00000000001
300.00000000001
300.00000000001
300.00000000001
300.00000000001
300.00000000001
300.00000000001
300.00000000001
300.00000000001
300.00000000001
300.00000000001
300.00000000001
300.000000000013
300.000000000017
300.000000000017
300.000000000013
300.00000000001
300.00000000001
300.00000000001
300.00000000001
300.00000000001
300.00000000001
300.00000000001
300.00000000001
300.00000000001
300.00000000001
300.00000000001
300.00000000001
300.00000000001
300.00000000001
300.00000000001
300.00000000001
300.00000000001
300.00000000001
300.00000000001
300.00000000001
300.00000000001
300.00000000001
300.00000000001
300.00000000001
300.00000000001
300.00000000001
300.00000000001
300.00000000001
300.00000000001
300.00000000001
300.00000000001
300.00000000001
300.00000000001
300.00000000001
300.00000000001
300.00000000001
300.00000000001
300.00000000001
300.00000000001
300.00000000001
300.00000000001
300.00000000001
300.00000000001
300.00000000001
300.00000000001
300.00000000001
300.000000000013
300.000000000017
300.000000000017
300.000000000013
300.00000000001
300.00000000001
300.00000000001
300.00000000001
300.00000000001
300.00000000001
300.00000000001
300.00000000001
300.00000000001
300.00000000001
300.00000000001
300.00000000001
300.00000000001
300.00000000001
300.00000000001
300.00000000001
300.00000000001
300.00000000001
300.00000000001
300.00000000001
300.00000000001
300.00000000001
300.00000000001
300.00000000001
300.00000000001
300.00000000001
300.00000000001
300.00000000001
300.00000000001
300.00000000001
300.00000000001
300.00000000001
300.00000000001
300.00000000001
300.00000000001
300.00000000001
300.00000000001
300.00000000001
300.00000000001
300.00000000001
300.00000000001
300.00000000001
300.00000000001
300.00000000001
300.00000000001
300.00000000001
300.000000000013
300.000000000017
300.000000000017
300.000000000013
300.00000000001
300.00000000001
300.00000000001
300.00000000001
300.00000000001
300.00000000001
300.00000000001
300.00000000001
300.00000000001
300.00000000001
300.00000000001
300.00000000001
300.00000000001
300.00000000001
300.00000000001
300.00000000001
300.00000000001
300.00000000001
300.00000000001
300.00000000001
300.00000000001
300.00000000001
300.00000000001
300.00000000001
300.00000000001
300.00000000001
300.00000000001
300.00000000001
300.00000000001
300.00000000001
300.00000000001
300.00000000001
300.00000000001
300.00000000001
300.00000000001
300.00000000001
300.00000000001
300.00000000001
300.00000000001
300.00000000001
300.00000000001
300.00000000001
300.00000000001
300.00000000001
300.00000000001
300.00000000001
300.000000000013
300.000000000017
300.000000000017
300.000000000013
300.00000000001
300.00000000001
300.00000000001
300.00000000001
300.00000000001
300.00000000001
300.00000000001
300.00000000001
300.00000000001
300.00000000001
300.00000000001
300.00000000001
300.00000000001
300.00000000001
300.00000000001
300.00000000001
300.00000000001
300.00000000001
300.00000000001
300.00000000001
300.00000000001
300.00000000001
300.00000000001
300.00000000001
300.00000000001
300.00000000001
300.00000000001
300.00000000001
300.00000000001
300.00000000001
300.00000000001
300.00000000001
300.00000000001
300.00000000001
300.00000000001
300.00000000001
300.00000000001
300.00000000001
300.00000000001
300.00000000001
300.00000000001
300.00000000001
300.00000000001
300.00000000001
300.00000000001
300.00000000001
300.000000000013
300.000000000017
300.000000000017
300.000000000013
300.00000000001
300.00000000001
300.00000000001
300.00000000001
300.00000000001
300.00000000001
300.00000000001
300.00000000001
300.00000000001
300.00000000001
300.00000000001
300.00000000001
300.00000000001
300.00000000001
300.00000000001
300.00000000001
300.00000000001
300.00000000001
300.00000000001
300.00000000001
300.00000000001
300.00000000001
300.00000000001
300.00000000001
300.00000000001
300.00000000001
300.00000000001
300.00000000001
300.00000000001
300.00000000001
300.00000000001
300.00000000001