/*--------------------------------*- C++ -*----------------------------------*\
  =========                 |
  \\      /  F ield         | OpenFOAM: The Open Source CFD Toolbox
   \\    /   O peration     | Website:  https://openfoam.org
    \\  /    A nd           | Version:  10
     \\/     M anipulation  |
\*---------------------------------------------------------------------------*/
FoamFile
{
    format      ascii;
    class       volVectorField;
    location    "0.4";
    object      U;
}
// * * * * * * * * * * * * * * * * * * * * * * * * * * * * * * * * * * * * * //

dimensions      [0 1 -1 0 0 0 0];

internalField   nonuniform List<vector> 
2500
(
(1.56880463567934e-06 -2.32690179635459e-05 0)
(1.45402667521538e-06 -2.57843470908218e-05 7.38034181288681e-25)
(-7.48162336280567e-07 -2.46458843049749e-05 0)
(-1.13398929732705e-06 -2.46051003647647e-05 0)
(-1.36917012051166e-06 -2.45997895029508e-05 0)
(-1.60088955007822e-06 -2.45969250286901e-05 0)
(-1.83843620920756e-06 -2.45950842770636e-05 0)
(-2.07829894896501e-06 -2.45936954932696e-05 0)
(-2.3144735393816e-06 -2.45924099204785e-05 0)
(-2.54136874587517e-06 -2.45910427214989e-05 7.38033543054151e-25)
(-2.75470989157583e-06 -2.45895320655383e-05 0)
(-2.95151647277639e-06 -2.45878469839428e-05 7.38033543795526e-25)
(-3.12985021705252e-06 -2.45859808424694e-05 7.38033544220412e-25)
(-3.28853964132917e-06 -2.45839514876386e-05 0)
(-3.42697717275195e-06 -2.45817731344864e-05 7.38033545132163e-25)
(-3.5449323041274e-06 -2.45794618238459e-05 0)
(-3.64245413262853e-06 -2.45770320768567e-05 7.38033448307767e-25)
(-3.71979779034273e-06 -2.45745171309433e-05 7.38033483210219e-25)
(-3.77738960955729e-06 -2.45719186943826e-05 0)
(-3.81576916287995e-06 -2.45692559442628e-05 7.38033547498332e-25)
(-3.83559540939249e-06 -2.45665442269709e-05 0)
(-3.83762434803262e-06 -2.45638062631514e-05 0)
(-3.82268419495183e-06 -2.45610448552062e-05 7.38033548835764e-25)
(-3.79165411657997e-06 -2.45582733574083e-05 0)
(-3.74546573809935e-06 -2.45555084653709e-05 0)
(-3.68508158674999e-06 -2.45527616390222e-05 7.38033550046219e-25)
(-3.61147317213453e-06 -2.45500374661679e-05 0)
(-3.52560827478606e-06 -2.45473439149361e-05 0)
(-3.42843694334021e-06 -2.4544690632088e-05 7.38033551098859e-25)
(-3.3209044917269e-06 -2.45420930386075e-05 0)
(-3.2039228339651e-06 -2.45395475940719e-05 0)
(-3.07837170195538e-06 -2.45370663136477e-05 0)
(-2.94510724695716e-06 -2.45346596667932e-05 0)
(-2.80496659442405e-06 -2.45323311824543e-05 0)
(-2.65874058557989e-06 -2.45300827613716e-05 0)
(-2.5071848978297e-06 -2.45279316144878e-05 7.38033552923291e-25)
(-2.35098099940884e-06 -2.45258851691699e-05 -7.38033553111903e-25)
(-2.19069643688313e-06 -2.45239634751196e-05 0)
(-2.02668542479768e-06 -2.4522189882684e-05 0)
(-1.85896593219101e-06 -2.45206020623437e-05 0)
(-1.68700722999582e-06 -2.45192514160939e-05 -7.38033553746398e-25)
(-1.50950291015066e-06 -2.4518214553661e-05 -7.38033553901827e-25)
(-1.32417809454168e-06 -2.45175944844985e-05 0)
(-1.12790975950638e-06 -2.45175471706397e-05 -7.38033554286051e-25)
(-9.17377874466353e-07 -2.45183217854599e-05 -7.38033554722332e-25)
(-6.90313797806275e-07 -2.452055155772e-05 0)
(-4.49954311199449e-07 -2.45266157735244e-05 0)
(-3.23091297533255e-07 -2.45704718728354e-05 -7.38033674225143e-25)
(-1.99804398167828e-06 -2.57170331787564e-05 0)
(-1.70307463959999e-06 -2.34031961007441e-05 -6.88957608611158e-25)
(1.50520723106974e-06 -0.000127764736667615 0)
(2.19390542217214e-06 -0.000144091425660975 0)
(-1.68107048351455e-07 -0.000132262644732073 0)
(-1.41589081826503e-06 -0.000132193407829355 0)
(-1.74009157692851e-06 -0.00013217370462209 -2.361848307463e-25)
(-2.03704996465038e-06 -0.000132161828430811 0)
(-2.34020359485543e-06 -0.000132153946569349 0)
(-2.64577719934305e-06 -0.000132147863792322 0)
(-2.94635498206556e-06 -0.000132142276263729 0)
(-3.23498675524098e-06 -0.000132136476437805 0)
(-3.50631934234508e-06 -0.000132130156026275 0)
(-3.75658867952761e-06 -0.000132123187491492 0)
(-3.9833546553339e-06 -0.000132115541121906 0)
(-4.18513720313311e-06 -0.000132107255130957 0)
(-4.36116112169516e-06 -0.000132098382327947 0)
(-4.51113243741551e-06 -0.000132088997228073 0)
(-4.6351206696462e-06 -0.000132079157442488 0)
(-4.73344239101573e-06 -0.000132068953636115 0)
(-4.806635686388e-06 -0.000132058437637588 0)
(-4.85539344435566e-06 -0.000132047676746067 0)
(-4.8805541773322e-06 -0.000132036733209812 0)
(-4.88307345126229e-06 -0.000132025673260023 0)
(-4.86399929547161e-06 -0.000132014529896659 0)
(-4.82445919374065e-06 -0.000132003365316218 0)
(-4.76563769224139e-06 -0.000131992221453245 0)
(-4.68875244309536e-06 -0.000131981150063691 0)
(-4.59503783463452e-06 -0.000131970175575859 0)
(-4.48572863523692e-06 -0.000131959340879152 0)
(-4.36203856283297e-06 -0.000131948672185645 0)
(-4.22516266555279e-06 -0.000131938219914229 0)
(-4.07625946738522e-06 -0.000131927993347268 0)
(-3.91645712080055e-06 -0.000131918028243478 0)
(-3.74683981474423e-06 -0.000131908354179531 0)
(-3.56846751636733e-06 -0.000131898999382854 0)
(-3.38235500756955e-06 -0.000131889986779201 0)
(-3.18946711288152e-06 -0.000131881360636583 0)
(-2.99067230127315e-06 -0.000131873162519525 0)
(-2.78670214546162e-06 -0.000131865468267526 0)
(-2.57801737366233e-06 -0.000131858368601937 0)
(-2.36465653984077e-06 -0.000131852009044823 2.36184748451212e-25)
(-2.14596523926336e-06 -0.000131846593710851 0)
(-1.92030765806392e-06 -0.000131842437522429 0)
(-1.68482940332617e-06 -0.000131839985772353 0)
(-1.43563417183399e-06 -0.000131839906179711 0)
(-1.16878009936574e-06 -0.000131843323856778 0)
(-8.82743238776078e-07 -0.000131852794661897 2.361849365598e-25)
(-6.03805509825933e-07 -0.000131875740053326 0)
(-1.20366585488862e-06 -0.000131957404242099 0)
(-3.11068979660192e-06 -0.000143752481371835 2.57748227983027e-25)
(-1.82847447909691e-06 -0.000127644938262085 0)
(4.70591135938321e-07 -0.000216075291948544 0)
(3.40400743988104e-07 -0.000234244215498656 1.25624645408997e-25)
(-6.37878047908655e-07 -0.000180899200608501 0)
(-1.11789245873273e-06 -0.000177930613273532 0)
(-1.38028788726739e-06 -0.000177900870073494 4.70595982298688e-26)
(-1.62024523634595e-06 -0.00017788335823921 9.41190316540709e-26)
(-1.86384395731442e-06 -0.000177871576889867 0)
(-2.10844116770473e-06 -0.000177862293766481 0)
(-2.34851097180802e-06 -0.000177853730598305 9.41190179443157e-26)
(-2.57876480443286e-06 -0.000177844970962006 4.70595089794445e-26)
(-2.79507953455132e-06 -0.000177835554604098 -4.70595089952644e-26)
(-2.99453219310544e-06 -0.000177825294747147 0)
(-3.17521865319273e-06 -0.0001778141465139 9.41190180672558e-26)
(-3.33598003411219e-06 -0.000177802148857352 -4.70595090546907e-26)
(-3.47621262107921e-06 -0.000177789368185549 9.41190181523156e-26)
(-3.5956837759972e-06 -0.000177775910019673 0)
(-3.6944492167904e-06 -0.000177761856140215 0)
(-3.77276486853094e-06 -0.000177747315590462 4.70595091426002e-26)
(-3.83105494751567e-06 -0.000177732376983594 0)
(-3.86987184540355e-06 -0.000177717134056658 9.41190183723803e-26)
(-3.88988418961976e-06 -0.00017770166433406 0)
(-3.8918486903153e-06 -0.000177686049831692 4.70595092281033e-26)
(-3.87660520420941e-06 -0.000177670357409203 0)
(-3.84505031530928e-06 -0.000177654662861722 0)
(-3.79812651519871e-06 -0.000177639019973927 4.70595092860969e-26)
(-3.73680512968714e-06 -0.000177623494033597 0)
(-3.66206987797084e-06 -0.00017760813285053 9.41190186419348e-26)
(-3.5749046231256e-06 -0.000177592990010991 -4.70595093372259e-26)
(-3.4762775205139e-06 -0.000177578106823639 0)
(-3.36714266330591e-06 -0.000177563531984259 9.41190187341009e-26)
(-3.24842086353773e-06 -0.000177549301966176 -4.70595093806451e-26)
(-3.12101373605013e-06 -0.000177535457542227 4.70595093935015e-26)
(-2.98578824056296e-06 -0.000177522032347178 -9.41190188107877e-26)
(-2.84359239496069e-06 -0.000177509072374819 -4.70595094165535e-26)
(-2.6952358389021e-06 -0.000177496617391135 4.70595094267676e-26)
(-2.54149355429051e-06 -0.000177484718345301 0)
(-2.38307017019756e-06 -0.000177473437545073 0)
(-2.22056142043909e-06 -0.000177462872885892 0)
(-2.0543542436996e-06 -0.000177453142996052 -4.70595094601745e-26)
(-1.88451081209629e-06 -0.000177444442116553 9.41190189348773e-26)
(-1.71055710816928e-06 -0.000177437048322943 0)
(-1.53125830049429e-06 -0.000177431392833219 0)
(-1.34443769267368e-06 -0.000177428118155809 4.70595097350295e-26)
(-1.14718179372883e-06 -0.000177428233490742 0)
(-9.36832906921453e-07 -0.000177433485443379 0)
(-7.13413670823068e-07 -0.00017744776582035 9.41193641589063e-26)
(-4.97476854744622e-07 -0.00017748225390998 0)
(-4.72651357031188e-07 -0.000180469867771256 0)
(-1.199942681913e-06 -0.000233664765392231 6.28129426483974e-26)
(-7.68384324068128e-07 -0.000215315620201828 0)
(7.80360179589552e-08 -0.000241105525680875 0)
(-2.7992883273179e-07 -0.000258488636688139 1.56837279898173e-26)
(-7.24408682072192e-07 -0.000185733512615008 0)
(-1.03730837386895e-06 -0.000182828865111375 0)
(-1.27843067918442e-06 -0.000182789298835656 0)
(-1.50732588707153e-06 -0.000182766423821903 0)
(-1.73753257996622e-06 -0.000182750688355416 0)
(-1.96731294408591e-06 -0.000182737968359692 0)
(-2.19210190066192e-06 -0.000182726096360784 0)
(-2.40731563134722e-06 -0.000182713934160119 0)
(-2.60930056742911e-06 -0.000182700917431159 0)
(-2.79544109737926e-06 -0.000182686815313381 1.09991037190502e-26)
(-2.96402124416341e-06 -0.000182671571035549 1.09991037233662e-26)
(-3.11398819467201e-06 -0.000182655243834158 0)
(-3.24479450780955e-06 -0.000182637924318408 1.09991037325982e-26)
(-3.3562281573661e-06 -0.000182619741060925 0)
(-3.44834295732597e-06 -0.000182600815156784 1.09991037421844e-26)
(-3.52137875643576e-06 -0.000182581281383686 1.09991037469937e-26)
(-3.57573050386017e-06 -0.000182561256838323 0)
(-3.61191069606102e-06 -0.000182540866296064 1.09991037564359e-26)
(-3.63054030231739e-06 -0.00018252021259861 0)
(-3.63232823388203e-06 -0.000182499401035023 0)
(-3.61805448343524e-06 -0.000182478523621004 1.09991037698291e-26)
(-3.58855516923889e-06 -0.00018245767105497 0)
(-3.54471025167179e-06 -0.000182436919354463 0)
(-3.48742655700596e-06 -0.000182416346925958 1.09991037819215e-26)
(-3.41762071539595e-06 -0.000182396023321493 0)
(-3.33621201433754e-06 -0.000182376011398834 0)
(-3.24410481498545e-06 -0.000182356370736992 1.0999103792397e-26)
(-3.14218961076999e-06 -0.000182337159918433 0)
(-3.03132813566226e-06 -0.000182318425835424 0)
(-2.91236181691052e-06 -0.000182300225686763 0)
(-2.78610307455562e-06 -0.000182282601635327 0)
(-2.65334666646563e-06 -0.000182265614443373 0)
(-2.5148530582261e-06 -0.000182249308652985 0)
(-2.37135366479828e-06 -0.000182233762035787 1.09991038104665e-26)
(-2.22351941215694e-06 -0.000182219048488092 -1.09991038123156e-26)
(-2.07192343462279e-06 -0.000182205282671041 0)
(-1.91695545032871e-06 -0.000182192619004592 0)
(-1.75871955987759e-06 -0.000182181292724372 0)
(-1.59683884346216e-06 -0.000182171646134905 -1.09991038193534e-26)
(-1.43026332892765e-06 -0.000182164213106386 -1.09991038272162e-26)
(-1.25713140829198e-06 -0.000182159816035355 0)
(-1.07503033336482e-06 -0.000182159765353422 -1.09991043922819e-26)
(-8.82168317851206e-07 -0.000182166302858731 -1.09991089108821e-26)
(-6.8010120244649e-07 -0.000182184118331357 0)
(-4.81350169421557e-07 -0.000182226424239014 0)
(-3.22606315698914e-07 -0.000185147018105885 0)
(-5.13579399330423e-07 -0.000257675801070346 0)
(-3.12043596576497e-07 -0.000240155449293702 -1.46664042465269e-26)
(-2.7689121287825e-08 -0.000246732986606262 0)
(-3.76720050560115e-07 -0.000263597880434572 0)
(-6.96060662078316e-07 -0.000188863235907933 0)
(-1.01241038274726e-06 -0.000185869607813239 0)
(-1.26074748070934e-06 -0.000185824682251643 -2.74614250321844e-27)
(-1.4947322958416e-06 -0.000185798155592744 0)
(-1.72723097229183e-06 -0.000185779170995505 0)
(-1.95771166409366e-06 -0.000185763285373605 0)
(-2.18232514899642e-06 -0.0001857481499594 0)
(-2.39691561673471e-06 -0.000185732503966693 0)
(-2.5980825519602e-06 -0.000185715722051032 0)
(-2.78334850454316e-06 -0.00018569755396663 0)
(-2.95107941131288e-06 -0.000185677954748371 0)
(-3.10026619519075e-06 -0.000185656998025432 0)
(-3.23037950334783e-06 -0.000185634812715199 0)
(-3.34121729794806e-06 -0.000185611552664038 0)
(-3.43283482410552e-06 -0.000185587386379224 0)
(-3.50546929180213e-06 -0.000185562472885687 0)
(-3.55951217288932e-06 -0.000185536965820088 0)
(-3.59547256880492e-06 -0.000185511017965972 0)
(-3.61396556945322e-06 -0.000185484763766267 0)
(-3.61569290954334e-06 -0.000185458335035554 0)
(-3.60143211999852e-06 -0.000185431844469815 0)
(-3.57201302718088e-06 -0.000185405405781574 0)
(-3.52831020497231e-06 -0.000185379117886915 0)
(-3.47122809112776e-06 -0.000185353078900587 0)
(-3.40167816207403e-06 -0.000185327368861338 0)
(-3.32057479865761e-06 -0.000185302071543289 0)
(-3.22882056557625e-06 -0.000185277259589099 0)
(-3.12730068497113e-06 -0.000185253006374676 0)
(-3.01687492807061e-06 -0.000185229369917277 0)
(-2.8983834593453e-06 -0.000185206420307287 0)
(-2.7726382099934e-06 -0.000185184213105464 0)
(-2.64043282928552e-06 -0.000185162817222446 0)
(-2.50253240960786e-06 -0.000185142294387381 0)
(-2.35967584362233e-06 -0.000185122731126454 0)
(-2.21254006446862e-06 -0.000185104222497631 0)
(-2.06172205862468e-06 -0.000185086896629321 0)
(-1.90764376846501e-06 -0.000185070932984643 0)
(-1.75045733499539e-06 -0.000185056598077927 1.37306673135676e-27)
(-1.58986925570884e-06 -0.000185044280036607 0)
(-1.42496560102183e-06 -0.000185034593242904 0)
(-1.25409784974644e-06 -0.000185028473714998 1.37306673987531e-27)
(-1.07522522649296e-06 -0.000185027408097877 0)
(-8.87301171584784e-07 -0.000185033853434268 0)
(-6.93600197835934e-07 -0.000185052561088001 1.37307246547772e-27)
(-5.07164645351524e-07 -0.000185096529824563 0)
(-3.56036592716041e-07 -0.000188089223416882 0)
(-3.97338521556142e-07 -0.00026252466905193 1.96028710775508e-27)
(-1.83682149549248e-07 -0.000245667309247486 0)
(-5.12253680183512e-08 -0.000248213184251758 0)
(-3.77840107808955e-07 -0.000264937818130018 1.96021796663225e-27)
(-6.63213117906858e-07 -0.00018975027444554 0)
(-9.86951244098507e-07 -0.000186740590603276 0)
(-1.24335840400731e-06 -0.000186695752609822 0)
(-1.48224459268384e-06 -0.000186667671073294 1.37246434405472e-27)
(-1.71710210495635e-06 -0.000186646456869362 0)
(-1.94838053587494e-06 -0.000186627979910234 0)
(-2.17289517704486e-06 -0.000186609944505794 1.37246383559677e-27)
(-2.38691103698013e-06 -0.000186591089006315 1.37246383545509e-27)
(-2.58728375393183e-06 -0.000186570778647299 -1.37246383584739e-27)
(-2.7716921248324e-06 -0.000186548772663612 0)
(-2.93858501447579e-06 -0.000186525044796151 1.3724638368715e-27)
(-3.08699834933043e-06 -0.000186499697406769 -1.37246383743133e-27)
(-3.21642573547905e-06 -0.000186472888450045 1.3724638380045e-27)
(-3.32667530595396e-06 -0.000186444811825555 0)
(-3.41780337136794e-06 -0.000186415663325295 0)
(-3.49004193193239e-06 -0.000186385641657178 1.37246383976489e-27)
(-3.5437821301802e-06 -0.000186354929858792 0)
(-3.57952597854733e-06 -0.000186323706130062 6.86231920459475e-28)
(-3.59788288476593e-06 -0.000186292135133638 0)
(-3.59954965961784e-06 -0.00018626037074846 1.37246384202595e-27)
(-3.58529589165792e-06 -0.000186228554555916 0)
(-3.55594935407599e-06 -0.00018619681320099 0)
(-3.51238067992654e-06 -0.000186165271116439 6.86231921777531e-28)
(-3.45548568128613e-06 -0.000186134040105786 0)
(-3.38617222662091e-06 -0.000186103216987831 6.86231922236152e-28)
(-3.30535430743367e-06 -0.000186072902270985 -6.86231922449726e-28)
(-3.21392951156229e-06 -0.000186043180781389 0)
(-3.11277947293289e-06 -0.000186014132528155 6.86231922840835e-28)
(-3.00276278392635e-06 -0.000185985841047211 -6.86231923018477e-28)
(-2.88471817766967e-06 -0.000185958375320596 6.86231923186473e-28)
(-2.75945607190241e-06 -0.000185931810763714 -6.86231923341506e-28)
(-2.62777292512719e-06 -0.000185906217747851 -6.86231923486895e-28)
(-2.4904366806167e-06 -0.000185881680695176 6.86231923619525e-28)
(-2.34819414025979e-06 -0.000185858285170304 0)
(-2.2017358561667e-06 -0.000185836141496399 0)
(-2.05167614922062e-06 -0.000185815393989787 0)
(-1.89847322426074e-06 -0.000185796230786634 -6.86231924051123e-28)
(-1.74233528863583e-06 -0.000185778936404727 6.86231924145932e-28)
(-1.58305990359487e-06 -0.000185763931793007 0)
(-1.41987240157904e-06 -0.000185751857054865 0)
(-1.25134713206729e-06 -0.000185743692835141 6.86231928402754e-28)
(-1.07580666180551e-06 -0.0001857409639716 0)
(-8.92833346108965e-07 -0.000185746056745074 0)
(-7.06918119622652e-07 -0.000185763180161901 6.86234798236325e-28)
(-5.32150367400179e-07 -0.000185803145005075 0)
(-3.91515118242186e-07 -0.000188801582949269 0)
(-3.93202890224543e-07 -0.000263614490434686 9.80111540160118e-28)
(-1.54736474742104e-07 -0.000246960811493677 0)
(-5.56925839134588e-08 -0.000248910039295533 0)
(-3.66252353312437e-07 -0.000265627893348136 0)
(-6.38428929888781e-07 -0.000190238427019656 0)
(-9.64443683795965e-07 -0.000187228957603372 0)
(-1.22666861740643e-06 -0.000187186771183537 0)
(-1.46955101938016e-06 -0.000187158450559428 0)
(-1.70642129967041e-06 -0.000187135720003848 0)
(-1.93832816560569e-06 -0.000187115050516648 0)
(-2.16261932257204e-06 -0.000187094357595055 0)
(-2.37594810335336e-06 -0.000187072452100731 1.3722631310969e-27)
(-2.57542370631175e-06 -0.000187048737390817 0)
(-2.75887405452665e-06 -0.000187023002615751 1.3722631319638e-27)
(-2.92483754189821e-06 -0.000186995249835439 1.37226313248977e-27)
(-3.07239776638931e-06 -0.00018696561655338 0)
(-3.20107144593017e-06 -0.000186934296701324 1.37226313361051e-27)
(-3.31067557394733e-06 -0.000186901518203283 0)
(-3.401267767804e-06 -0.000186867510403526 6.86131567384268e-28)
(-3.47307872648075e-06 -0.000186832504274337 6.86131567674929e-28)
(-3.52648944082299e-06 -0.000186796717766009 0)
(-3.56199953353499e-06 -0.000186760350542861 6.86131568244598e-28)
(-3.58021158066259e-06 -0.000186723598897899 0)
(-3.58181537178987e-06 -0.000186686636709559 0)
(-3.56757437414515e-06 -0.000186649627986282 1.37226313810154e-27)
(-3.53830936078554e-06 -0.000186612725762785 0)
(-3.49488698132957e-06 -0.000186576065880467 0)
(-3.43819734399774e-06 -0.000186539773734275 6.86131569776532e-28)
(-3.36914575252994e-06 -0.000186503972106531 0)
(-3.28864006463101e-06 -0.000186468768495937 0)
(-3.19757207385692e-06 -0.000186434263305488 6.86131570402979e-28)
(-3.09682584603511e-06 -0.000186400550874456 0)
(-2.98725514344e-06 -0.000186367720287675 0)
(-2.86969558483337e-06 -0.000186335856694306 0)
(-2.74495932680962e-06 -0.000186305042964766 0)
(-2.61384406278497e-06 -0.000186275363887037 0)
(-2.47712203906925e-06 -0.000186246907713632 0)
(-2.33554466910049e-06 -0.000186219769133956 6.86131571474664e-28)
(-2.18981786750906e-06 -0.000186194068880317 -6.86131571583238e-28)
(-2.04057717806903e-06 -0.000186169953730852 0)
(-1.88831438787495e-06 -0.000186147627436675 0)
(-1.73329793689305e-06 -0.000186127374354783 0)
(-1.57541222033916e-06 -0.000186109628782121 -3.43065785998821e-28)
(-1.4140232825486e-06 -0.000186095024601681 -6.86131572483288e-28)
(-1.24792260154234e-06 -0.000186084541281483 0)
(-1.07574401553546e-06 -0.000186079635194835 -6.86131607942634e-28)
(-8.9752064134862e-07 -0.000186082463215592 -3.43065946338311e-28)
(-7.18379111132551e-07 -0.000186096471323492 0)
(-5.52469141637373e-07 -0.000186130139641477 -3.43078688741909e-28)
(-4.16909564666262e-07 -0.000189120579231366 -3.48644541418153e-28)
(-4.05468012213193e-07 -0.000264062742316033 0)
(-1.49661109405009e-07 -0.000247443196483511 -4.58322841421431e-28)
(-5.64777591255124e-08 -0.00024945914684735 0)
(-3.5630558008147e-07 -0.000266205235938157 0)
(-6.20249920774563e-07 -0.000190656575064024 0)
(-9.4544294090931e-07 -0.000187649270638534 0)
(-1.21108479245444e-06 -0.000187610665458902 -1.37220162888437e-27)
(-1.45678349667701e-06 -0.0001875829394441 0)
(-1.69510947858644e-06 -0.000187559258737263 0)
(-1.92732832970804e-06 -0.000187536753676014 0)
(-2.15117812265932e-06 -0.000187513634043722 0)
(-2.36364153852185e-06 -0.000187488845105227 0)
(-2.56206105503332e-06 -0.000187461858257594 0)
(-2.74441494872588e-06 -0.000187432506471129 0)
(-2.90932651933628e-06 -0.000187400844666368 0)
(-3.05592780714337e-06 -0.000187367038161065 0)
(-3.18375772386925e-06 -0.000187331329737998 0)
(-3.29264214447296e-06 -0.000187293971528329 0)
(-3.38263889317053e-06 -0.000187255236722087 0)
(-3.45397422843185e-06 -0.000187215381184542 0)
(-3.50702356345672e-06 -0.000187174653644887 0)
(-3.54227798815061e-06 -0.000187133288772095 0)
(-3.56033389887194e-06 -0.000187091498447638 0)
(-3.56187183009204e-06 -0.000187049484139092 0)
(-3.54765080221071e-06 -0.000187007429791846 0)
(-3.51848434502958e-06 -0.000186965508807143 0)
(-3.47522910521955e-06 -0.000186923873752019 0)
(-3.41877419369603e-06 -0.000186882669297563 0)
(-3.3500183540532e-06 -0.000186842030106763 0)
(-3.26986421401904e-06 -0.000186802076363455 0)
(-3.17920261044633e-06 -0.00018676292166594 0)
(-3.07890934586658e-06 -0.000186724676466494 0)
(-2.96983825368783e-06 -0.000186687434884887 0)
(-2.85282479864667e-06 -0.000186651297933344 0)
(-2.72867906154445e-06 -0.000186616355201467 0)
(-2.59820003833944e-06 -0.000186582699323685 0)
(-2.46216047477797e-06 -0.000186550426872204 0)
(-2.32132326825741e-06 -0.000186519641885726 0)
(-2.17640488193733e-06 -0.000186490464861529 0)
(-2.02806102393974e-06 -0.000186463048772374 0)
(-1.87681859662938e-06 -0.000186437596774385 0)
(-1.72300103128651e-06 -0.000186414392947447 6.86098094626788e-28)
(-1.56658064044482e-06 -0.000186393855446828 0)
(-1.4070551146937e-06 -0.00018637660018143 0)
(-1.24340703519847e-06 -0.000186363554519535 6.86098098871536e-28)
(-1.07451860612721e-06 -0.000186356045496105 0)
(-9.00703451710233e-07 -0.000186355925513406 0)
(-7.27247195480403e-07 -0.000186365871679038 3.43050485177752e-28)
(-5.67591867226814e-07 -0.000186392519750361 0)
(-4.33811638817296e-07 -0.000189374245879841 0)
(-4.15541578334914e-07 -0.000264405771251467 4.90048621931528e-28)
(-1.49006861163106e-07 -0.000247774978232507 0)
(-5.73047781148653e-08 -0.000249969966852551 0)
(-3.50489293916477e-07 -0.000266751840809591 1.96018874418486e-27)
(-6.07153806897698e-07 -0.000191053475619367 0)
(-9.29521425551705e-07 -0.00018804743603237 0)
(-1.19669725269607e-06 -0.000188012513509998 1.37217934425366e-27)
(-1.44411274988437e-06 -0.000187985827433431 1.37217443485732e-27)
(-1.68325824965802e-06 -0.000187961597038413 0)
(-1.91539553193224e-06 -0.000187937557453598 0)
(-2.13852649877188e-06 -0.000187912230815419 0)
(-2.3499075540759e-06 -0.000187884722762178 1.37217382458991e-27)
(-2.54708888311521e-06 -0.000187854608310426 -1.37217382494804e-27)
(-2.72818997632491e-06 -0.000187821778002103 0)
(-2.89191545669255e-06 -0.000187786335385761 6.86086912967817e-28)
(-3.03744290747658e-06 -0.000187748492801501 -1.37217382647522e-27)
(-3.16433248183953e-06 -0.000187708529289365 6.86086913513358e-28)
(-3.27241638870328e-06 -0.000187666740398765 0)
(-3.36175411100672e-06 -0.000187623426269563 0)
(-3.43256409971304e-06 -0.000187578877700626 6.8608691435879e-28)
(-3.48521672365726e-06 -0.000187533372045324 0)
(-3.52019315191976e-06 -0.00018748716911115 6.86086914912031e-28)
(-3.53807931845861e-06 -0.000187440505622662 0)
(-3.53955100111036e-06 -0.000187393606482825 6.86086915441919e-28)
(-3.52535758672483e-06 -0.00018734667504897 0)
(-3.49630410494672e-06 -0.000187299898988159 0)
(-3.45324278560458e-06 -0.000187253454879834 6.86086916172107e-28)
(-3.3970547278884e-06 -0.000187207500606559 0)
(-3.32863293255106e-06 -0.000187162184209401 6.86086916608851e-28)
(-3.24887466853773e-06 -0.00018711763835013 -6.86086916811844e-28)
(-3.15866680512836e-06 -0.000187073991334636 0)
(-3.05888361162967e-06 -0.000187031359771817 6.86086917182706e-28)
(-2.95037407729236e-06 -0.000186989855943337 -6.86086917350696e-28)
(-2.83397149985839e-06 -0.000186949582732451 6.86086917509356e-28)
(-2.71048379578595e-06 -0.000186910645443261 -3.43043458827691e-28)
(-2.58071209896728e-06 -0.000186873139901332 -3.43043458896025e-28)
(-2.44543430697338e-06 -0.000186837169674147 3.4304345895816e-28)
(-2.30541374850827e-06 -0.000186802844488051 0)
(-2.16138075819935e-06 -0.000186770285767962 0)
(-2.01401216749287e-06 -0.000186739646881659 0)
(-1.8638652850981e-06 -0.000186711122506698 -3.43043459158873e-28)
(-1.7113160258729e-06 -0.000186684987711337 3.43043459202785e-28)
(-1.5564146623912e-06 -0.000186661631249813 0)
(-1.39878151810621e-06 -0.00018664163352546 0)
(-1.23756043034187e-06 -0.000186625836486165 3.43043461320607e-28)
(-1.07181842653033e-06 -0.000186615411368 0)
(-9.01999645563174e-07 -0.000186611893184393 0)
(-7.33251950542007e-07 -0.000186617298465611 3.4304489703464e-28)
(-5.77989229682773e-07 -0.000186637010353996 0)
(-4.44259351531615e-07 -0.000189611682158878 0)
(-4.20913732856655e-07 -0.000264725769583407 4.90048021225012e-28)
(-1.48489933221876e-07 -0.000248073340199776 0)
(-5.8728586768553e-08 -0.000250458951851251 0)
(-3.47720069744767e-07 -0.000267277231468032 0)
(-5.97535294382703e-07 -0.000191434253800255 0)
(-9.16273598163234e-07 -0.000188428270383542 0)
(-1.18355459763345e-06 -0.000188396738589485 1.37217191112149e-27)
(-1.43165856026362e-06 -0.000188371256306584 1.37216697703696e-27)
(-1.67097842180955e-06 -0.000188346736847928 0)
(-1.90260820103815e-06 -0.000188321399817071 0)
(-2.12471498521504e-06 -0.000188294066739512 1.3721663608652e-27)
(-2.3347794907494e-06 -0.000188264012965549 1.37216636050358e-27)
(-2.53053356808819e-06 -0.000188230921487391 -1.37216636085283e-27)
(-2.7102194558175e-06 -0.000188194761208158 0)
(-2.87262134614272e-06 -0.000188155687676918 6.86083180912539e-28)
(-3.01695903958229e-06 -0.000188113964871409 -1.37216636235608e-27)
(-3.1428130588543e-06 -0.000188069906720953 6.86083181449344e-28)
(-3.25001983397587e-06 -0.000188023849764019 0)
(-3.3386348131855e-06 -0.000187976129389908 0)
(-3.40887285543337e-06 -0.000187927063784106 6.86083182281006e-28)
(-3.4610938716316e-06 -0.000187876962581606 0)
(-3.49576862589311e-06 -0.000187826102743512 6.86083182825172e-28)
(-3.51347604871536e-06 -0.000187774753141557 0)
(-3.51487997705316e-06 -0.000187723154018019 6.86083183346273e-28)
(-3.50072079793694e-06 -0.000187671533452573 0)
(-3.47179863388378e-06 -0.000187620091120193 0)
(-3.42895522029409e-06 -0.000187569023233096 6.86083184064024e-28)
(-3.37306538128939e-06 -0.000187518500602994 0)
(-3.305015229929e-06 -0.000187468682268041 6.86083184493042e-28)
(-3.22569750693721e-06 -0.000187419718941125 -6.86083184692357e-28)
(-3.13599500332986e-06 -0.000187371751263633 0)
(-3.03677549014557e-06 -0.000187324901731165 6.8608318505628e-28)
(-2.92888592111231e-06 -0.000187279294463502 -6.86083185221001e-28)
(-2.81315825425326e-06 -0.000187235041583754 3.43041592688257e-28)
(-2.69039902285997e-06 -0.000187192255626311 -6.86083185519568e-28)
(-2.56140633741848e-06 -0.0001871510406641 -6.86083185653389e-28)
(-2.42695987837173e-06 -0.000187111504052225 6.86083185774985e-28)
(-2.28783145426349e-06 -0.00018707375568185 0)
(-2.14475933333604e-06 -0.000187037925132674 0)
(-1.99843583625749e-06 -0.000187004149075895 0)
(-1.84944870409324e-06 -0.000186972620230021 -6.86083186167036e-28)
(-1.69821839288566e-06 -0.000186943587705565 3.43041593126353e-28)
(-1.54486984009613e-06 -0.000186917410373016 0)
(-1.38912697864668e-06 -0.000186894612076866 0)
(-1.23026454539002e-06 -0.000186875936400188 6.86083190481086e-28)
(-1.06748185161216e-06 -0.000186862390839299 0)
(-9.01250793757181e-07 -0.000186855220967524 0)
(-7.36407628184025e-07 -0.00018685594123343 3.43043030924857e-28)
(-5.84227938360887e-07 -0.000186869159010358 0)
(-4.49838247825034e-07 -0.000189838514519649 0)
(-4.21946436758101e-07 -0.00026503279344077 4.90047820110941e-28)
(-1.47014792626195e-07 -0.000248357197577621 0)
(-6.10556748990399e-08 -0.000250926482852387 0)
(-3.4810117795493e-07 -0.00026777981453838 1.96018776511097e-27)
(-5.90825479068118e-07 -0.000191797583010698 0)
(-9.05133756131497e-07 -0.000188790680135677 0)
(-1.17149681546952e-06 -0.000188762110202633 1.37216943269653e-27)
(-1.41946879217658e-06 -0.000188737834629914 1.3721644879428e-27)
(-1.65835870075157e-06 -0.000188713176192929 0)
(-1.88905113549253e-06 -0.000188686726034075 0)
(-2.1098180878547e-06 -0.000188657565259295 1.37216386880327e-27)
(-2.31831796483935e-06 -0.000188625135290856 6.86081934211205e-28)
(-2.51244456350383e-06 -0.000188589234619274 -1.37216386876177e-27)
(-2.69055331331944e-06 -0.000188549907335317 0)
(-2.85149634584471e-06 -0.00018850737569906 6.86081934856508e-28)
(-2.99453043565277e-06 -0.000188461947064257 -1.3721638702321e-27)
(-3.11925201705195e-06 -0.000188413979949477 6.86081935381126e-28)
(-3.22550403224588e-06 -0.000188363847154189 0)
(-3.31333678584532e-06 -0.000188311915769604 0)
(-3.38295585018766e-06 -0.000188258535341251 6.86081936193251e-28)
(-3.43471097969623e-06 -0.000188204041659731 0)
(-3.4690629570365e-06 -0.000188148738269124 6.86081936724303e-28)
(-3.48657935270863e-06 -0.000188092912072632 0)
(-3.4879155455496e-06 -0.000188036826036334 6.86081937232528e-28)
(-3.47380063287593e-06 -0.000187980726598084 0)
(-3.44502370290749e-06 -0.000187924830895883 0)
(-3.40242254758329e-06 -0.000187869344562697 6.86081937931813e-28)
(-3.34685967464191e-06 -0.00018781445877424 0)
(-3.27921802771396e-06 -0.000187760343123957 6.86081938349229e-28)
(-3.20038567184496e-06 -0.000187707160242595 -6.86081938542973e-28)
(-3.11123536033851e-06 -0.000187655060745563 0)
(-3.01263309398759e-06 -0.000187604178522243 6.86081938896302e-28)
(-2.90542267247916e-06 -0.000187554649048626 -6.86081939055999e-28)
(-2.79043159425792e-06 -0.000187506591308532 3.43040969603333e-28)
(-2.66846374409229e-06 -0.000187460122454498 -3.43040969672543e-28)
(-2.54031765998913e-06 -0.000187415354031458 -3.43040969737229e-28)
(-2.40677414313858e-06 -0.000187372399911339 6.86081939591826e-28)
(-2.2686076290593e-06 -0.000187331368661066 0)
(-2.12656183837006e-06 -0.000187292384135278 0)