/*--------------------------------*- C++ -*----------------------------------*\
  =========                 |
  \\      /  F ield         | OpenFOAM: The Open Source CFD Toolbox
   \\    /   O peration     | Website:  https://openfoam.org
    \\  /    A nd           | Version:  10
     \\/     M anipulation  |
\*---------------------------------------------------------------------------*/
FoamFile
{
    format      ascii;
    class       volScalarField;
    location    "0.4";
    object      wallHeatFlux;
}
// * * * * * * * * * * * * * * * * * * * * * * * * * * * * * * * * * * * * * //

dimensions      [1 0 -3 0 0 0 0];

internalField   uniform 0;

boundaryField
{
    back
    {
        type            calculated;
        value           uniform 0;
    }
    bottom
    {
        type            calculated;
        value           nonuniform List<scalar> 
50
(
1558.72616032885
1594.72391656078
1596.46041101979
1596.51335908495
1596.51405528698
1596.51345124622
1596.51309585323
1596.51263891365
1596.51213257754
1596.51190678409
1596.51150954856
1596.51125697878
1596.51110438217
1596.51089391628
1596.51070537216
1596.51048197827
1596.5103827446
1596.51025828007
1596.51009546739
1596.50997491644
1596.50987986853
1596.5098099354
1596.50973676316
1596.50968001693
1596.50962436201
1596.50957939718
1596.50957007135
1596.50953071118
1596.50950143966
1596.50950711333
1596.50951111333
1596.5095209147
1596.50956021303
1596.50961062707
1596.50966177665
1596.50972515666
1596.50979422022
1596.50984551227
1596.5099976181
1596.51012814416
1596.51027355136
1596.51045295047
1596.51066567469
1596.51082848031
1596.51122600316
1596.51138801065
1596.50943509626
1596.44196814529
1594.65353722125
1558.68852934799
)
;
    }
    left
    {
        type            calculated;
        value           uniform 0;
    }
    front
    {
        type            calculated;
        value           uniform 0;
    }
    right
    {
        type            calculated;
        value           uniform 0;
    }
    top
    {
        type            calculated;
        value           uniform 0;
    }
}


// ************************************************************************* //
