/*--------------------------------*- C++ -*----------------------------------*\
  =========                 |
  \\      /  F ield         | OpenFOAM: The Open Source CFD Toolbox
   \\    /   O peration     | Website:  https://openfoam.org
    \\  /    A nd           | Version:  10
     \\/     M anipulation  |
\*---------------------------------------------------------------------------*/
FoamFile
{
    format      ascii;
    class       volScalarField;
    location    "0.2";
    object      alphat;
}
// * * * * * * * * * * * * * * * * * * * * * * * * * * * * * * * * * * * * * //

dimensions      [1 -1 -1 0 0 0 0];

internalField   nonuniform List<scalar> 
2500
(
2.92820969546019e-09
2.98590146263975e-09
2.99128857607589e-09
2.99179557321385e-09
2.99184497013084e-09
2.9918498440181e-09
2.9918503294127e-09
2.99185037814363e-09
2.99185038307258e-09
2.99185038369004e-09
2.99185038385618e-09
2.99185038369716e-09
2.99185038365836e-09
2.99185038363329e-09
2.99185038357539e-09
2.99185038350995e-09
2.99185038327908e-09
2.99185038321431e-09
2.99185038315933e-09
2.99185038310837e-09
2.99185038305493e-09
2.9918503830046e-09
2.9918503829565e-09
2.99185038290577e-09
2.99185038285917e-09
2.99185038281472e-09
2.99185038276871e-09
2.99185038272648e-09
2.99185038268883e-09
2.99185038265996e-09
2.99185038261022e-09
2.99185038257369e-09
2.99185038254007e-09
2.99185038250843e-09
2.99185038247887e-09
2.99185038245154e-09
2.99185038242688e-09
2.99185038240103e-09
2.99185038237228e-09
2.9918503822184e-09
2.99185038073432e-09
2.99185036863303e-09
2.99185027267124e-09
2.9918495269439e-09
2.99184387693821e-09
2.9918024963217e-09
2.99151306502882e-09
2.98961700501499e-09
2.97836158452268e-09
2.92744119929582e-09
1.28450382085211e-08
2.95701056582814e-08
2.9649013482017e-08
2.96563356486021e-08
2.96570235466468e-08
2.96570888698532e-08
2.96570951385755e-08
2.96570957463789e-08
2.96570958059096e-08
2.96570958125466e-08
2.96570958136083e-08
2.96570958123471e-08
2.96570958126814e-08
2.96570958120788e-08
2.96570958121543e-08
2.96570958110267e-08
2.96570958102235e-08
2.96570958098312e-08
2.96570958094243e-08
2.96570958090904e-08
2.96570958086837e-08
2.96570958083246e-08
2.96570958080032e-08
2.96570958076079e-08
2.96570958072667e-08
2.96570958069633e-08
2.96570958065949e-08
2.96570958062759e-08
2.96570958060122e-08
2.96570958059628e-08
2.96570958054069e-08
2.96570958051053e-08
2.9657095804841e-08
2.96570958045896e-08
2.96570958043526e-08
2.96570958041329e-08
2.96570958039522e-08
2.96570958037292e-08
2.96570958037079e-08
2.96570958028237e-08
2.96570957983638e-08
2.96570957556156e-08
2.96570953840222e-08
2.96570921588181e-08
2.96570644539194e-08
2.965683029878e-08
2.96548974810334e-08
2.96395086705414e-08
2.95240106075282e-08
1.27761019951979e-08
1.31627239608544e-08
1.21747660878665e-07
8.49575432953421e-06
8.49954551557418e-06
8.4998962848476e-06
8.49992888228775e-06
8.49993192852395e-06
8.49993221505777e-06
8.49993224220139e-06
8.49993224483553e-06
8.49993224503818e-06
8.49993224492769e-06
8.49993224492969e-06
8.49993224475655e-06
8.49993224476901e-06
8.49993224458081e-06
8.49993224444666e-06
8.49993224437996e-06
8.499932244251e-06
8.49993224418882e-06
8.49993224405849e-06
8.49993224396797e-06
8.49993224391269e-06
8.49993224378884e-06
8.49993224370516e-06
8.49993224365569e-06
8.49993224354168e-06
8.49993224346293e-06
8.49993224341036e-06
8.49993224333043e-06
8.4999322432531e-06
8.49993224318741e-06
8.499932243127e-06
8.49993224306987e-06
8.49993224301627e-06
8.49993224296825e-06
8.49993224295075e-06
8.49993224287628e-06
8.49993224280952e-06
8.49993224264598e-06
8.49993224138452e-06
8.49993223003003e-06
8.4999321287192e-06
8.49993122708373e-06
8.4999232162736e-06
8.49985228972295e-06
8.4992273002861e-06
8.4937559171549e-06
1.21626546414378e-07
1.31204655576461e-08
1.32656325423982e-08
1.22849329687156e-07
8.57940382225916e-06
8.58429021949767e-06
8.58477488891187e-06
8.58482228561963e-06
8.58482687700889e-06
8.58482731912735e-06
8.58482736154366e-06
8.58482736558873e-06
8.58482736591959e-06
8.58482736586202e-06
8.58482736578562e-06
8.58482736569697e-06
8.584827365623e-06
8.5848273655164e-06
8.58482736541766e-06
8.58482736531705e-06
8.58482736523095e-06
8.5848273651342e-06
8.58482736504363e-06
8.584827364963e-06
8.58482736487325e-06
8.58482736478874e-06
8.5848273647159e-06
8.58482736463457e-06
8.58482736456041e-06
8.58482736448852e-06
8.58482736443787e-06
8.58482736435996e-06
8.58482736429753e-06
8.58482736424151e-06
8.58482736418821e-06
8.58482736413772e-06
8.58482736408952e-06
8.58482736404569e-06
8.58482736400164e-06
8.58482736396778e-06
8.5848273639166e-06
8.58482736375731e-06
8.58482736245871e-06
8.58482735104168e-06
8.58482724901646e-06
8.58482633520062e-06
8.58481815402134e-06
8.58474497032324e-06
8.58409107121469e-06
8.57825753781913e-06
1.22779065263753e-07
1.32448231398856e-08
1.32999737350979e-08
1.23207472392258e-07
8.60682306899364e-06
8.61224358510317e-06
8.61281072243018e-06
8.61286903931101e-06
8.61287494883301e-06
8.61287554051834e-06
8.61287559916362e-06
8.61287560489481e-06
8.61287560540544e-06
8.61287560537026e-06
8.61287560529422e-06
8.61287560521199e-06
8.61287560512504e-06
8.61287560503172e-06
8.6128756049435e-06
8.61287560484624e-06
8.61287560476153e-06
8.61287560466743e-06
8.61287560458011e-06
8.61287560450101e-06
8.61287560441373e-06
8.61287560433318e-06
8.61287560426243e-06
8.61287560418438e-06
8.61287560411888e-06
8.6128756040459e-06
8.61287560398747e-06
8.61287560392247e-06
8.6128756038652e-06
8.61287560381746e-06
8.61287560376809e-06
8.61287560372075e-06
8.61287560367212e-06
8.6128756036316e-06
8.61287560359404e-06
8.61287560355993e-06
8.61287560351712e-06
8.61287560334067e-06
8.612875602047e-06
8.61287559061047e-06
8.61287548823969e-06
8.6128745700769e-06
8.61286633401948e-06
8.6127924692792e-06
8.61213020661191e-06
8.60619475142987e-06
1.23163583950025e-07
1.32903080077121e-08
1.33115580110527e-08
1.2332502962907e-07
8.61586933071926e-06
8.62152246861161e-06
8.62213295845988e-06
8.62219798289641e-06
8.62220481569245e-06
8.62220552463765e-06
8.62220559732223e-06
8.62220560465462e-06
8.62220560533225e-06
8.62220560532953e-06
8.62220560525618e-06
8.62220560517306e-06
8.62220560508656e-06
8.62220560499705e-06
8.62220560491123e-06
8.62220560481986e-06
8.62220560473055e-06
8.6222056046438e-06
8.62220560455591e-06
8.62220560447432e-06
8.62220560439453e-06
8.62220560431375e-06
8.62220560424083e-06
8.62220560417044e-06
8.62220560409877e-06
8.62220560403332e-06
8.62220560397543e-06
8.6222056039135e-06
8.62220560385809e-06
8.62220560380638e-06
8.62220560375857e-06
8.62220560371305e-06
8.62220560367276e-06
8.62220560363464e-06
8.62220560360131e-06
8.62220560356601e-06
8.6222056035203e-06
8.62220560335146e-06
8.62220560205553e-06
8.62220559061245e-06
8.62220548814944e-06
8.62220456880059e-06
8.62219631809505e-06
8.62212227375242e-06
8.62145782071202e-06
8.61549576067322e-06
1.2329288119351e-07
1.33069672447505e-08
1.33154827457279e-08
1.23363806425907e-07
8.61886107694463e-06
8.62460893377441e-06
8.62524008766521e-06
8.62530877230948e-06
8.6253161717931e-06
8.62531696055679e-06
8.62531704372022e-06
8.62531705235376e-06
8.6253170531863e-06
8.62531705320332e-06
8.62531705313261e-06
8.62531705304997e-06
8.62531705296427e-06
8.62531705287659e-06
8.62531705278889e-06
8.6253170526999e-06
8.62531705261351e-06
8.62531705252672e-06
8.62531705244263e-06
8.62531705236151e-06
8.62531705228145e-06
8.62531705220444e-06
8.62531705213204e-06
8.62531705206133e-06
8.62531705199354e-06
8.62531705192969e-06
8.62531705186975e-06
8.6253170518123e-06
8.62531705175858e-06
8.62531705170864e-06
8.62531705166153e-06
8.62531705161784e-06
8.62531705157862e-06
8.62531705154159e-06
8.62531705150734e-06
8.62531705147511e-06
8.62531705143122e-06
8.6253170512633e-06
8.62531704996451e-06
8.62531703852257e-06
8.62531693604106e-06
8.62531601642285e-06
8.62530776238751e-06
8.6252336767409e-06
8.62456871397346e-06
8.61860039028022e-06
1.23336483461488e-07
1.33130514838689e-08
1.33168149440197e-08
1.23376636358021e-07
8.61985143526857e-06
8.62563613948084e-06
8.62627650303962e-06
8.6263470257424e-06
8.62635474156476e-06
8.62635557931185e-06
8.62635566948033e-06
8.62635567905469e-06
8.62635568000852e-06
8.62635568004081e-06
8.62635567997304e-06
8.62635567989134e-06
8.62635567980666e-06
8.62635567972015e-06
8.6263556796334e-06
8.62635567954611e-06
8.62635567946061e-06
8.62635567937541e-06
8.62635567929265e-06
8.62635567921271e-06
8.6263556791337e-06
8.62635567905803e-06
8.62635567898676e-06
8.62635567891665e-06
8.62635567885104e-06
8.62635567878794e-06
8.62635567872873e-06
8.62635567867314e-06
8.62635567862024e-06
8.62635567857145e-06
8.6263556785253e-06
8.6263556784827e-06
8.62635567844454e-06
8.626355678408e-06
8.62635567837501e-06
8.6263556783434e-06
8.62635567830033e-06
8.62635567813248e-06
8.62635567683495e-06
8.62635566539335e-06
8.62635556290927e-06
8.62635464325109e-06
8.62634638866498e-06
8.62627229579528e-06
8.62560723966981e-06
8.61963772193881e-06
1.23351202996196e-07
1.33152645913827e-08
1.33172675466857e-08
1.23380891158262e-07
8.62017942938187e-06
8.62597799468514e-06
8.62662226544562e-06
8.62669365586329e-06
8.62670153607116e-06
8.62670240158612e-06
8.62670249605396e-06
8.62670250624994e-06
8.62670250728896e-06
8.62670250733389e-06
8.6267025072691e-06
8.62670250718856e-06
8.62670250710533e-06
8.62670250701976e-06
8.62670250693441e-06
8.62670250684911e-06
8.62670250676455e-06
8.62670250668132e-06
8.6267025065998e-06
8.62670250652065e-06
8.62670250644353e-06
8.62670250636926e-06
8.62670250629873e-06
8.62670250623037e-06
8.62670250616597e-06
8.62670250610426e-06
8.62670250604641e-06
8.62670250599198e-06
8.62670250594038e-06
8.62670250589241e-06
8.6267025058477e-06
8.62670250580619e-06
8.62670250576857e-06
8.62670250573337e-06
8.62670250570147e-06
8.62670250567067e-06
8.62670250562843e-06
8.62670250546141e-06
8.62670250416472e-06
8.62670249272398e-06
8.62670239024151e-06
8.62670147058679e-06
8.62669321601056e-06
8.62661912298113e-06
8.62595406189811e-06
8.61998445053701e-06
1.23356174180518e-07
1.33160662822318e-08
1.33174213904115e-08
1.23382304962086e-07
8.62028809623986e-06
8.62609174113873e-06
8.62673760779709e-06
8.62680938868642e-06
8.62681734965941e-06
8.62681822995809e-06
8.62681832689066e-06
8.6268183374686e-06
8.62681833856411e-06
8.62681833861784e-06
8.62681833855549e-06
8.62681833847668e-06
8.62681833839458e-06
8.62681833831046e-06
8.6268183382267e-06
8.62681833814291e-06
8.62681833805993e-06
8.62681833797823e-06
8.6268183378982e-06
8.62681833782048e-06
8.62681833774494e-06
8.62681833767213e-06
8.62681833760301e-06
8.62681833753597e-06
8.62681833747302e-06
8.62681833741245e-06
8.62681833735592e-06
8.62681833730252e-06
8.62681833725221e-06
8.62681833720545e-06
8.62681833716177e-06
8.6268183371213e-06
8.62681833708468e-06
8.62681833705037e-06
8.62681833701938e-06
8.62681833698942e-06
8.62681833694796e-06
8.62681833678193e-06
8.62681833548592e-06
8.62681832404605e-06
8.62681822156519e-06
8.62681730191798e-06
8.62680904741148e-06
8.62673495509551e-06
8.62606990126586e-06
8.62010036219928e-06
1.23357853390815e-07
1.33163555755754e-08
1.33174737001123e-08
1.233827755875e-07
8.62032411201321e-06
8.62612957918555e-06
8.62677607823062e-06
8.62684802822216e-06
8.62685602712342e-06
8.62685691490216e-06
8.62685701317118e-06
8.62685702397039e-06
8.62685702510101e-06
8.62685702516117e-06
8.62685702510101e-06
8.62685702502414e-06
8.62685702494362e-06
8.62685702486142e-06
8.62685702477944e-06
8.62685702469731e-06
8.62685702461643e-06
8.62685702453639e-06
8.62685702445824e-06
8.62685702438227e-06
8.62685702430857e-06
8.62685702423756e-06
8.62685702417005e-06
8.62685702410465e-06
8.62685702404328e-06
8.62685702398418e-06
8.62685702392912e-06
8.62685702387696e-06
8.62685702382826e-06
8.62685702378279e-06
8.62685702374041e-06
8.62685702370118e-06
8.62685702366565e-06
8.62685702363247e-06
8.62685702360256e-06
8.62685702357362e-06
8.62685702353315e-06
8.62685702336802e-06
8.62685702207299e-06
8.62685701063419e-06
8.62685690815465e-06
8.6268559885129e-06
8.62684773405284e-06
8.62677364223584e-06
8.62610859385485e-06
8.62013911409396e-06
1.23358420668167e-07
1.33164596042564e-08
1.33174914907354e-08
1.23382932509762e-07
8.62033605404608e-06
8.62614216330436e-06
8.62678890677186e-06
8.6268609277272e-06
8.62686894378871e-06
8.62686983519561e-06
8.62686993415647e-06
8.62686994507781e-06
8.62686994622926e-06
8.62686994629419e-06
8.62686994623612e-06
8.6268699461609e-06
8.62686994608261e-06
8.62686994600227e-06
8.62686994592215e-06
8.62686994584193e-06
8.62686994576296e-06
8.62686994568478e-06
8.6268699456086e-06
8.62686994553438e-06
8.62686994546262e-06
8.62686994539332e-06
8.62686994532735e-06
8.62686994526381e-06
8.62686994520386e-06
8.62686994514653e-06
8.62686994509293e-06
8.62686994504227e-06
8.62686994499496e-06
8.62686994495072e-06
8.62686994490972e-06
8.62686994487171e-06
8.62686994483724e-06
8.62686994480526e-06
8.62686994477636e-06
8.62686994474838e-06
8.62686994470881e-06
8.62686994454454e-06
8.62686994325076e-06
8.62686993181302e-06
8.62686982933453e-06
8.62686890969633e-06
8.62686065526003e-06
8.62678656369835e-06
8.62612151816537e-06
8.62015207015939e-06
1.23358612323479e-07
1.33164968952609e-08
1.33174975425991e-08
1.23382984914254e-07
8.62034001570735e-06
8.62614634769528e-06
8.62679318367388e-06
8.62686523363365e-06
8.62687325721988e-06
8.62687415032505e-06
8.62687424963044e-06
8.62687426061691e-06
8.62687426178059e-06
8.6268742618491e-06
8.62687426179311e-06
8.62687426172015e-06
8.62687426164395e-06
8.62687426156578e-06
8.6268742614879e-06
8.62687426140982e-06
8.6268742613331e-06
8.62687426125716e-06
8.62687426118306e-06
8.62687426111119e-06
8.62687426104139e-06
8.62687426097398e-06
8.62687426091021e-06
8.62687426084847e-06
8.62687426079045e-06
8.62687426073481e-06
8.62687426068296e-06
8.62687426063417e-06
8.62687426058832e-06
8.62687426054575e-06
8.62687426050611e-06
8.6268742604695e-06
8.62687426043654e-06
8.62687426040573e-06
8.62687426037794e-06
8.62687426035106e-06
8.62687426031257e-06
8.6268742601494e-06
8.62687425885682e-06
8.6268742474203e-06
8.62687414494324e-06
8.62687322530742e-06
8.62686497088263e-06
8.62679087943683e-06
8.6261258352045e-06
8.62015640186538e-06
1.2335867707899e-07
1.33165102252296e-08
1.33174996016717e-08
1.23383002440066e-07
8.62034133065656e-06
8.6261477388294e-06
8.62679460919715e-06
8.62686667074749e-06
8.62687469754616e-06
8.62687559142239e-06
8.62687569089381e-06
8.62687570191387e-06
8.62687570308485e-06
8.62687570315607e-06
8.62687570310204e-06
8.62687570303149e-06
8.62687570295725e-06
8.62687570288165e-06
8.62687570280598e-06
8.62687570273025e-06
8.62687570265581e-06
8.62687570258207e-06
8.62687570251014e-06
8.62687570244038e-06
8.62687570237259e-06
8.62687570230732e-06
8.62687570224553e-06
8.62687570218564e-06
8.62687570212962e-06
8.62687570207577e-06
8.62687570202573e-06
8.62687570197867e-06
8.62687570193431e-06
8.62687570189333e-06
8.62687570185512e-06
8.62687570181992e-06
8.62687570178825e-06
8.62687570175864e-06
8.62687570173209e-06
8.62687570170632e-06
8.62687570166887e-06
8.62687570150693e-06
8.62687570021521e-06
8.62687568877992e-06
8.62687558630452e-06
8.62687466667032e-06
8.62686641225135e-06
8.62679232085506e-06
8.62612727717455e-06
8.62015785011758e-06
1.23358698959903e-07
1.33165149780528e-08
1.33175003023556e-08
1.23383008308452e-07
8.62034176730509e-06
8.6261482012032e-06
8.62679508415498e-06
8.62686715024785e-06
8.62687517838661e-06
8.62687607260386e-06
8.62687617215317e-06
8.62687618319012e-06
8.62687618436606e-06
8.6268761844399e-06
8.6268761843882e-06
8.62687618431977e-06
8.6268761842482e-06
8.62687618417512e-06
8.626876184102e-06
8.62687618402882e-06
8.6268761839568e-06
8.62687618388558e-06
8.6268761838161e-06
8.62687618374847e-06
8.62687618368327e-06
8.62687618362031e-06
8.62687618356052e-06
8.62687618350304e-06
8.62687618344899e-06
8.62687618339733e-06
8.62687618334924e-06
8.62687618330391e-06
8.62687618326158e-06
8.62687618322221e-06
8.62687618318582e-06
8.6268761831522e-06
8.62687618312182e-06
8.62687618309384e-06
8.62687618306866e-06
8.62687618304415e-06
8.62687618300792e-06
8.62687618284725e-06
8.62687618155691e-06
8.62687617012302e-06
8.62687606764911e-06
8.62687514801669e-06
8.6268668936011e-06
8.62679280222536e-06
8.62612775877004e-06
8.62015833428127e-06
1.23358706353061e-07
1.33165166687787e-08
1.33175005408374e-08
1.23383010275202e-07
8.62034191233805e-06
8.62614835481639e-06
8.62679524230873e-06
8.62686731015188e-06
8.62687533883833e-06
8.62687623320299e-06
8.62687633278812e-06
8.6268763438339e-06
8.62687634501321e-06
8.62687634508946e-06
8.62687634504027e-06
8.62687634497403e-06
8.62687634490494e-06
8.62687634483429e-06
8.62687634476371e-06
8.62687634469304e-06
8.6268763446235e-06
8.62687634455501e-06
8.62687634448774e-06
8.62687634442237e-06
8.62687634435955e-06
8.62687634429889e-06
8.62687634424131e-06
8.62687634418604e-06
8.62687634413416e-06
8.62687634408435e-06
8.62687634403817e-06
8.62687634399488e-06
8.62687634395421e-06
8.62687634391669e-06
8.6268763438818e-06
8.62687634384971e-06
8.62687634382074e-06
8.62687634379418e-06
8.62687634377032e-06
8.62687634374703e-06
8.62687634371196e-06
8.62687634355234e-06
8.62687634226339e-06
8.62687633083082e-06
8.62687622835835e-06
8.62687530872789e-06
8.6268670543146e-06
8.62679296294716e-06
8.62612791958052e-06
8.62015849611198e-06
1.23358708851253e-07
1.33165172689931e-08
1.33175006219843e-08
1.23383010934032e-07
8.62034196045299e-06
8.62614840576015e-06
8.626795294871e-06
8.62686736337826e-06
8.62687539228451e-06
8.62687628671168e-06
8.62687638631324e-06
8.62687639736398e-06
8.6268763985459e-06
8.62687639862453e-06
8.62687639857794e-06
8.62687639851423e-06
8.62687639844777e-06
8.62687639837983e-06
8.62687639831199e-06
8.62687639824408e-06
8.62687639817728e-06
8.62687639811154e-06
8.62687639804679e-06
8.62687639798403e-06
8.62687639792377e-06
8.62687639786566e-06
8.62687639781051e-06
8.62687639775752e-06
8.62687639770802e-06
8.62687639766035e-06
8.62687639761637e-06
8.62687639757517e-06
8.62687639753642e-06
8.62687639750084e-06
8.62687639746776e-06
8.62687639743743e-06
8.62687639741011e-06
8.6268763973851e-06
8.62687639736276e-06
8.62687639734083e-06
8.6268763973071e-06
8.62687639714888e-06
8.62687639586102e-06
8.62687638443003e-06
8.62687628195959e-06
8.626875362331e-06
8.62686710791976e-06
8.62679301655617e-06
8.62612797322298e-06
8.62015855015146e-06
1.233587096951e-07
1.33165174816524e-08
1.33175006495798e-08
1.23383011154085e-07
8.62034197636025e-06
8.62614842258829e-06
8.6267953122696e-06
8.62686738102534e-06
8.62687541001829e-06
8.62687630447154e-06
8.62687640408075e-06
8.6268764151346e-06
8.62687641631868e-06
8.62687641639959e-06
8.62687641635512e-06
8.6268764162942e-06
8.62687641623053e-06
8.6268764161653e-06
8.62687641610015e-06
8.62687641603496e-06
8.62687641597078e-06
8.62687641590738e-06
8.62687641584552e-06
8.62687641578531e-06
8.62687641572755e-06
8.62687641567184e-06
8.62687641561899e-06
8.62687641556832e-06
8.62687641552077e-06
8.62687641547557e-06
8.62687641543367e-06
8.6268764153942e-06
8.62687641535767e-06
8.62687641532375e-06
8.62687641529265e-06
8.62687641526403e-06
8.62687641523833e-06
8.62687641521477e-06
8.626876415194e-06
8.62687641517321e-06
8.62687641514066e-06
8.62687641498374e-06
8.62687641369735e-06
8.62687640226791e-06
8.62687629979906e-06
8.62687538017239e-06
8.62686712576311e-06
8.62679303440155e-06
8.62612799108097e-06
8.62015856816267e-06
1.23358709979634e-07
1.33165175568708e-08
1.3317500658901e-08
1.23383011226451e-07
8.62034198152568e-06
8.62614842805087e-06
8.62679531793191e-06
8.62686738677955e-06
8.62687541580615e-06
8.62687631027024e-06
8.6268764098833e-06
8.62687642093969e-06
8.62687642212574e-06
8.62687642220906e-06
8.62687642216704e-06
8.62687642210886e-06
8.62687642204833e-06
8.62687642198572e-06
8.62687642192345e-06
8.62687642186121e-06
8.62687642179982e-06
8.6268764217393e-06
8.62687642168017e-06
8.62687642162271e-06
8.62687642156769e-06
8.62687642151451e-06
8.62687642146447e-06
8.62687642141611e-06
8.62687642137085e-06
8.62687642132811e-06
8.62687642128851e-06
8.62687642125114e-06
8.62687642121678e-06
8.62687642118485e-06
8.62687642115576e-06
8.62687642112902e-06
8.62687642110527e-06
8.62687642108317e-06
8.62687642106394e-06
8.62687642104455e-06
8.62687642101344e-06
8.62687642085773e-06
8.62687641957302e-06
8.62687640814528e-06
8.62687630567811e-06
8.62687538605378e-06
8.62686713164656e-06
8.62679304028647e-06
8.62612799697041e-06
8.62015857410911e-06
1.2335871007434e-07
1.33165175833996e-08
1.33175006620001e-08
1.23383011249298e-07
8.62034198313338e-06
8.62614842975291e-06
8.6267953197033e-06
8.62686738858446e-06
8.62687541762386e-06
8.62687631209245e-06
8.62687641170764e-06
8.62687642276593e-06
8.62687642395403e-06
8.62687642403992e-06
8.62687642400051e-06
8.62687642394479e-06
8.62687642388703e-06
8.6268764238271e-06
8.62687642376769e-06
8.62687642370853e-06
8.62687642364963e-06
8.62687642359201e-06
8.62687642353547e-06
8.62687642348068e-06
8.62687642342843e-06
8.62687642337756e-06
8.62687642333e-06
8.62687642328417e-06
8.62687642324105e-06
8.62687642320061e-06
8.62687642316341e-06
8.62687642312791e-06
8.62687642309557e-06
8.62687642306559e-06
8.62687642303838e-06
8.62687642301342e-06
8.62687642299133e-06
8.62687642297076e-06
8.6268764229528e-06
8.62687642293502e-06
8.62687642290527e-06
8.62687642275082e-06
8.62687642146735e-06
8.62687641004142e-06
8.62687630757617e-06
8.62687538795394e-06
8.62686713354874e-06
8.6267930421898e-06
8.62612799887366e-06
8.62015857603383e-06
1.23358710105768e-07
1.3316517592738e-08
1.3317500662935e-08
1.23383011255212e-07
8.62034198353127e-06
8.62614843018152e-06
8.6267953201569e-06
8.62686738905021e-06
8.62687541809438e-06
8.62687631256497e-06
8.62687641218161e-06
8.62687642324132e-06
8.62687642443181e-06
8.62687642452027e-06
8.62687642448356e-06
8.62687642443062e-06
8.62687642437545e-06
8.62687642431874e-06
8.62687642426236e-06
8.62687642420621e-06
8.62687642415012e-06
8.62687642409548e-06
8.6268764240417e-06
8.62687642398976e-06
8.6268764239404e-06
8.62687642389205e-06
8.62687642384684e-06
8.62687642380396e-06
8.62687642376335e-06
8.6268764237255e-06
8.62687642369065e-06
8.62687642365731e-06
8.62687642362719e-06
8.62687642359933e-06
8.62687642357416e-06
8.62687642355119e-06
8.62687642353064e-06
8.626876423512e-06
8.62687642349561e-06
8.62687642347942e-06
8.62687642345122e-06
8.62687642329824e-06
8.62687642201623e-06
8.62687641059207e-06
8.62687630812902e-06
8.62687538850895e-06
8.62686713410591e-06
8.6267930427484e-06
8.62612799943221e-06
8.62015857660207e-06
1.23358710115754e-07
1.33165175959774e-08
1.33175006631333e-08
1.23383011255593e-07
8.62034198354641e-06
8.62614843020645e-06
8.62679532019123e-06
8.62686738908862e-06
8.62687541813444e-06
8.62687631260599e-06
8.62687641222379e-06
8.62687642328501e-06
8.62687642447758e-06
8.6268764245681e-06
8.62687642453436e-06
8.62687642448449e-06
8.62687642443209e-06
8.62687642437799e-06
8.62687642432439e-06
8.62687642427082e-06
8.62687642421778e-06
8.62687642416561e-06
8.62687642411488e-06
8.62687642406565e-06
8.6268764240187e-06
8.62687642397317e-06
8.62687642393043e-06
8.62687642388986e-06
8.62687642385194e-06
8.62687642381663e-06
8.62687642378359e-06
8.62687642375267e-06
8.62687642372463e-06
8.62687642369879e-06
8.62687642367556e-06
8.62687642365463e-06
8.62687642363556e-06
8.62687642361856e-06
8.62687642360368e-06
8.62687642358896e-06
8.62687642356237e-06
8.62687642341081e-06
8.62687642213005e-06
8.62687641070726e-06
8.62687630824648e-06
8.62687538862866e-06
8.62686713422774e-06
8.6267930428714e-06
8.62612799955419e-06
8.62015857672349e-06
1.23358710118316e-07
1.33165175970715e-08
1.33175006630354e-08
1.23383011253858e-07
8.62034198341054e-06
8.62614843007525e-06
8.62679532006424e-06
8.62686738896332e-06
8.62687541800976e-06
8.62687631248193e-06
8.62687641210082e-06
8.62687642316367e-06
8.62687642435834e-06
8.62687642445124e-06
8.6268764244202e-06
8.62687642437329e-06
8.62687642432385e-06
8.62687642427263e-06
8.62687642422201e-06
8.62687642417161e-06
8.62687642412133e-06
8.62687642407201e-06
8.62687642402423e-06
8.62687642397786e-06
8.62687642393391e-06
8.62687642389094e-06
8.62687642385085e-06
8.62687642381291e-06
8.62687642377764e-06
8.62687642374478e-06
8.62687642371428e-06
8.62687642368562e-06
8.62687642365973e-06
8.62687642363605e-06
8.6268764236149e-06
8.62687642359599e-06
8.62687642357872e-06
8.62687642356352e-06
8.62687642355027e-06
8.62687642353713e-06
8.62687642351212e-06
8.62687642336212e-06
8.62687642208302e-06
8.6268764106618e-06
8.62687630820302e-06
8.626875388588e-06
8.62686713418919e-06
8.62679304283385e-06
8.62612799951707e-06
8.6201585766865e-06
1.23358710117702e-07
1.3316517597377e-08
1.33175006628371e-08
1.23383011251594e-07
8.6203419832458e-06
8.62614842991248e-06
8.62679531990332e-06
8.62686738880346e-06
8.62687541785008e-06
8.62687631232269e-06
8.62687641194259e-06
8.62687642300703e-06
8.62687642420374e-06
8.62687642429897e-06
8.62687642427012e-06
8.62687642422599e-06
8.62687642417942e-06
8.62687642413134e-06
8.62687642408356e-06
8.62687642403593e-06
8.6268764239885e-06
8.62687642394198e-06
8.6268764238969e-06
8.62687642385329e-06
8.62687642381197e-06
8.62687642377151e-06
8.62687642373405e-06
8.62687642369854e-06
8.62687642366554e-06
8.62687642363477e-06
8.62687642360688e-06
8.62687642358046e-06
8.62687642355673e-06
8.62687642353509e-06
8.62687642351588e-06
8.62687642349866e-06
8.62687642348337e-06
8.62687642346982e-06
8.62687642345807e-06
8.62687642344637e-06
8.6268764234226e-06
8.62687642327416e-06
8.62687642199663e-06
8.62687641057708e-06
8.62687630812053e-06
8.62687538850777e-06
8.62686713411116e-06
8.62679304275699e-06
8.6261279994396e-06
8.62015857661254e-06
1.23358710117078e-07
1.33165175974238e-08
1.33175006625578e-08
1.23383011248908e-07
8.62034198304889e-06
8.62614842971814e-06
8.6267953197109e-06
8.6268673886116e-06
8.6268754176583e-06
8.62687631213133e-06
8.62687641175226e-06
8.6268764228184e-06
8.62687642401709e-06
8.62687642411468e-06
8.62687642408844e-06
8.62687642404707e-06
8.62687642400363e-06
8.62687642395835e-06
8.62687642391339e-06
8.62687642386849e-06
8.62687642382425e-06
8.62687642378059e-06
8.62687642373847e-06
8.62687642369771e-06
8.62687642365873e-06
8.62687642362138e-06
8.62687642358663e-06
8.62687642355354e-06
8.62687642352315e-06
8.62687642349482e-06
8.62687642346911e-06
8.62687642344558e-06
8.62687642342395e-06
8.62687642340445e-06
8.62687642338733e-06
8.62687642337224e-06
8.62687642335873e-06
8.62687642334683e-06
8.62687642333679e-06
8.62687642332668e-06
8.62687642330455e-06
8.62687642315752e-06
8.62687642188137e-06
8.62687641046389e-06
8.62687630800953e-06
8.62687538839904e-06
8.62686713400508e-06
8.6267930426522e-06
8.62612799933295e-06
8.62015857649915e-06
1.23358710115822e-07
1.331651759733e-08
1.33175006622445e-08
1.23383011246257e-07
8.62034198286218e-06
8.62614842953306e-06
8.62679531952716e-06
8.62686738842817e-06
8.62687541747491e-06
8.62687631194832e-06
8.62687641157021e-06
8.62687642263817e-06
8.62687642383856e-06
8.62687642393843e-06
8.62687642391471e-06
8.62687642387596e-06
8.62687642383529e-06
8.62687642379269e-06
8.62687642375052e-06
8.62687642370833e-06
8.62687642366691e-06
8.62687642362598e-06
8.62687642358663e-06
8.62687642354874e-06
8.62687642351201e-06
8.62687642347734e-06
8.62687642344533e-06
8.62687642341437e-06
8.62687642338642e-06
8.6268764233604e-06
8.62687642333681e-06
8.62687642331562e-06
8.62687642329616e-06
8.6268764232787e-06
8.62687642326351e-06
8.62687642325022e-06
8.62687642323862e-06
8.62687642322822e-06
8.6268764232197e-06
8.62687642321105e-06
8.62687642319031e-06
8.62687642304466e-06
8.62687642177004e-06
8.62687641035435e-06
8.62687630790188e-06
8.626875388294e-06
8.62686713390248e-06
8.62679304255095e-06
8.62612799923049e-06
8.62015857639442e-06
1.23358710113908e-07
1.33165175972003e-08
1.33175006618509e-08
1.23383011243331e-07
8.6203419826541e-06
8.6261484293268e-06
8.62679531932259e-06
8.62686738822399e-06
8.62687541727086e-06
8.62687631174468e-06
8.62687641136747e-06
8.62687642243701e-06
8.62687642363943e-06
8.62687642374156e-06
8.62687642372035e-06
8.62687642368442e-06
8.62687642364613e-06
8.62687642360674e-06
8.62687642356737e-06
8.62687642352801e-06
8.62687642348949e-06
8.62687642345131e-06
8.6268764234147e-06
8.6268764233795e-06
8.62687642334548e-06
8.62687642331354e-06
8.62687642328411e-06
8.62687642325568e-06
8.62687642323034e-06
8.62687642320664e-06
8.62687642318536e-06
8.62687642316627e-06
8.62687642314925e-06
8.62687642313392e-06
8.62687642312086e-06
8.62687642310935e-06
8.62687642309981e-06
8.62687642309117e-06
8.62687642308433e-06
8.62687642307722e-06
8.62687642305771e-06
8.62687642291378e-06
8.62687642164079e-06
8.62687641022702e-06
8.62687630777675e-06
8.62687538817146e-06
8.62686713378252e-06
8.62679304243264e-06
8.62612799911187e-06
8.62015857627456e-06
1.23358710112233e-07
1.33165175970116e-08
1.33175006613569e-08
1.23383011240311e-07
8.62034198244912e-06
8.62614842912026e-06
8.62679531911707e-06
8.62686738801878e-06
8.62687541706599e-06
8.62687631154019e-06
8.62687641116359e-06
8.62687642223427e-06
8.62687642343917e-06
8.62687642354321e-06
8.62687642352439e-06
8.62687642349122e-06
8.62687642345519e-06
8.62687642341884e-06
8.62687642338189e-06
8.6268764233452e-06
8.62687642330959e-06
8.62687642327375e-06
8.62687642323964e-06
8.62687642320672e-06
8.62687642317549e-06
8.62687642314596e-06
8.62687642311864e-06
8.62687642309296e-06
8.62687642307013e-06
8.62687642304845e-06
8.62687642302941e-06
8.62687642301235e-06
8.62687642299738e-06
8.62687642298412e-06
8.62687642297321e-06
8.62687642296319e-06
8.6268764229552e-06
8.6268764229487e-06
8.62687642294344e-06
8.62687642293773e-06
8.6268764229193e-06
8.62687642277657e-06
8.62687642150537e-06
8.62687641009343e-06
8.62687630764536e-06
8.62687538804255e-06
8.62686713365623e-06
8.62679304230839e-06
8.62612799898713e-06
8.62015857615204e-06
1.2335871011057e-07
1.33165175967864e-08
1.33175006605682e-08
1.23383011236428e-07
8.62034198217577e-06
8.62614842884949e-06