/*--------------------------------*- C++ -*----------------------------------*\
  =========                 |
  \\      /  F ield         | OpenFOAM: The Open Source CFD Toolbox
   \\    /   O peration     | Website:  https://openfoam.org
    \\  /    A nd           | Version:  10
     \\/     M anipulation  |
\*---------------------------------------------------------------------------*/
FoamFile
{
    format      ascii;
    class       volScalarField;
    location    "0.2";
    object      k;
}
// * * * * * * * * * * * * * * * * * * * * * * * * * * * * * * * * * * * * * //

dimensions      [0 2 -2 0 0 0 0];

internalField   nonuniform List<scalar> 
2500
(
0.000324424605489484
0.000331369769746247
0.000331963736687603
0.000332019915782661
0.000332025395775162
0.000332025936619993
0.000332025990486524
0.000332025995894503
0.000332025996441502
0.000332025996510038
0.000332025996528452
0.000332025996510815
0.000332025996506533
0.000332025996503728
0.000332025996497326
0.00033202599649004
0.000332025996464431
0.000332025996457242
0.000332025996451129
0.000332025996445485
0.000332025996439567
0.00033202599643397
0.00033202599642862
0.000332025996423013
0.000332025996417818
0.000332025996412886
0.000332025996407791
0.000332025996403105
0.000332025996398927
0.000332025996395722
0.000332025996390203
0.000332025996386137
0.000332025996382418
0.000332025996378906
0.000332025996375626
0.000332025996372581
0.000332025996369856
0.000332025996366987
0.000332025996363797
0.000332025996346719
0.000332025996182009
0.000332025994839036
0.000332025984189526
0.000332025901431122
0.000332025274412793
0.0003320206821758
0.000331988564168954
0.000331778237774864
0.000330533177114509
0.000324339597503583
0.00034956355872486
0.000357579105148658
0.000358530483082546
0.000358618926644767
0.000358627241700208
0.000358628031511482
0.000358628107312468
0.00035862811466221
0.000358628115382077
0.000358628115462338
0.000358628115475173
0.000358628115459927
0.000358628115463973
0.000358628115456673
0.0003586281154576
0.00035862811544396
0.000358628115434246
0.000358628115429507
0.000358628115424582
0.000358628115420549
0.00035862811541563
0.000358628115411288
0.000358628115407394
0.000358628115402622
0.000358628115398495
0.000358628115394819
0.000358628115390372
0.000358628115386518
0.000358628115383317
0.000358628115382732
0.000358628115376007
0.000358628115372359
0.000358628115369163
0.000358628115366127
0.000358628115363261
0.000358628115360596
0.000358628115358415
0.000358628115355723
0.000358628115355465
0.000358628115344773
0.000358628115290841
0.000358628114773901
0.000358628110280423
0.000358628071279757
0.000358627736261129
0.000358624904825114
0.00035860153489289
0.000358415530664587
0.000357021579928214
0.000347700772669396
0.000357669092634483
0.000367566308872286
0.000369350377946298
0.000369515161183289
0.000369530409209591
0.000369531826312133
0.000369531958744022
0.000369531971200909
0.000369531972380966
0.000369531972495485
0.000369531972504295
0.000369531972499492
0.000369531972499578
0.000369531972492051
0.000369531972492592
0.00036953197248441
0.000369531972478579
0.000369531972475679
0.000369531972470072
0.000369531972467369
0.000369531972461703
0.000369531972457768
0.000369531972455364
0.00036953197244998
0.000369531972446342
0.000369531972444191
0.000369531972439235
0.000369531972435812
0.000369531972433526
0.000369531972430051
0.000369531972426689
0.000369531972423833
0.000369531972421207
0.000369531972418723
0.000369531972416392
0.000369531972414305
0.000369531972413545
0.000369531972410307
0.000369531972407404
0.000369531972400294
0.000369531972345453
0.00036953197185182
0.000369531967447363
0.000369531928249053
0.000369531579982108
0.000369528496490837
0.000369501325873639
0.000369263478669413
0.000367200445461811
0.000356525172067669
0.000360391694724774
0.000370829190046194
0.000372924151561717
0.000373136540225316
0.000373157607028481
0.000373159667215963
0.00037315986679061
0.000373159886008297
0.000373159887852021
0.000373159888027849
0.000373159888042231
0.000373159888039729
0.000373159888036408
0.000373159888032554
0.000373159888029339
0.000373159888024706
0.000373159888020414
0.00037315988801604
0.000373159888012297
0.000373159888008092
0.000373159888004155
0.00037315988800065
0.000373159887996749
0.000373159887993076
0.00037315988798991
0.000373159887986375
0.000373159887983151
0.000373159887980026
0.000373159887977824
0.000373159887974438
0.000373159887971725
0.000373159887969289
0.000373159887966972
0.000373159887964778
0.000373159887962683
0.000373159887960777
0.000373159887958863
0.000373159887957391
0.000373159887955166
0.000373159887948243
0.000373159887891796
0.000373159887395527
0.000373159882960759
0.000373159843239589
0.000373159487625333
0.000373156306525798
0.000373127883362975
0.00037287431863134
0.00037061701934537
0.000359827278838873
0.00036131463594207
0.000371902235433972
0.000374108061156042
0.000374343669416369
0.000374368320730697
0.000374370855551733
0.000374371112417356
0.000374371138135803
0.000374371140684905
0.000374371140934019
0.000374371140956214
0.000374371140954685
0.00037437114095138
0.000374371140947805
0.000374371140944026
0.00037437114093997
0.000374371140936135
0.000374371140931908
0.000374371140928225
0.000374371140924135
0.00037437114092034
0.000374371140916902
0.000374371140913108
0.000374371140909607
0.000374371140906532
0.000374371140903139
0.000374371140900292
0.000374371140897119
0.00037437114089458
0.000374371140891754
0.000374371140889266
0.00037437114088719
0.000374371140885044
0.000374371140882987
0.000374371140880873
0.000374371140879112
0.000374371140877479
0.000374371140875996
0.000374371140874136
0.000374371140866466
0.000374371140810235
0.000374371140313129
0.000374371135863435
0.000374371095954157
0.000374370737961984
0.000374367527324419
0.000374338741135404
0.000374080748576546
0.000371769740157524
0.000361052217353056
0.000361627981879465
0.0003722560597428
0.000374500270699202
0.000374745991405367
0.000374772527131181
0.000374775353503399
0.000374775650499913
0.000374775681315158
0.000374775684474491
0.000374775684793202
0.000374775684822656
0.000374775684822538
0.00037477568481935
0.000374775684815737
0.000374775684811977
0.000374775684808086
0.000374775684804356
0.000374775684800385
0.000374775684796503
0.000374775684792732
0.000374775684788912
0.000374775684785365
0.000374775684781897
0.000374775684778386
0.000374775684775216
0.000374775684772157
0.000374775684769042
0.000374775684766197
0.00037477568476368
0.000374775684760988
0.00037477568475858
0.000374775684756333
0.000374775684754254
0.000374775684752276
0.000374775684750524
0.000374775684748868
0.000374775684747419
0.000374775684745884
0.000374775684743898
0.000374775684736559
0.00037477568468023
0.000374775684182841
0.000374775679729149
0.000374775639768424
0.000374775281140488
0.000374772062704318
0.000374743181368372
0.00037448403256335
0.00037215901611536
0.000361503294700222
0.000361734418725836
0.000372372976866188
0.000374630185087475
0.000374880023186217
0.00037490745711742
0.000374910442585819
0.000374910764214127
0.000374910798498782
0.00037491080211359
0.000374910802488858
0.000374910802525046
0.000374910802525786
0.000374910802522712
0.00037491080251912
0.000374910802515395
0.000374910802511584
0.000374910802507772
0.000374910802503904
0.000374910802500148
0.000374910802496376
0.000374910802492721
0.000374910802489195
0.000374910802485715
0.000374910802482368
0.000374910802479221
0.000374910802476148
0.000374910802473201
0.000374910802470425
0.00037491080246782
0.000374910802465323
0.000374910802462988
0.000374910802460817
0.00037491080245877
0.00037491080245687
0.000374910802455166
0.000374910802453556
0.000374910802452067
0.000374910802450667
0.000374910802448759
0.00037491080244146
0.000374910802385006
0.000374910801887667
0.000374910797433173
0.000374910757460752
0.000374910398688201
0.000374907178457695
0.000374878274972857
0.000374618853912854
0.000372290501944483
0.000361668374381641
0.000361770584828873
0.000372411687258783
0.000374673216465828
0.0003749246562503
0.000374952490496011
0.00037495555585825
0.000374955891236645
0.000374955927650427
0.000374955931569719
0.000374955931985881
0.00037495593202734
0.000374955932028744
0.000374955932025798
0.000374955932022247
0.000374955932018567
0.000374955932014806
0.000374955932011036
0.000374955932007241
0.000374955932003525
0.000374955931999822
0.000374955931996224
0.00037495593199275
0.000374955931989315
0.000374955931986026
0.000374955931982928
0.000374955931979881
0.000374955931977029
0.000374955931974286
0.000374955931971713
0.000374955931969296
0.000374955931966997
0.000374955931964876
0.00037495593196287
0.000374955931961019
0.00037495593195936
0.000374955931957772
0.000374955931956338
0.000374955931954964
0.000374955931953091
0.000374955931945796
0.000374955931889397
0.000374955931392073
0.000374955926937467
0.000374955886963311
0.000374955528166834
0.00037495230762249
0.000374923400080533
0.000374663927117966
0.000372334916673637
0.000361728467933037
0.000361782877046126
0.000372424528209199
0.000374687471164444
0.000374939513452199
0.000374967517530513
0.00037497062060918
0.000374970963132811
0.00037497100075356
0.000374971004859729
0.000374971005302911
0.000374971005348073
0.000374971005350026
0.00037497100534721
0.000374971005343709
0.000374971005340091
0.000374971005336372
0.000374971005332662
0.000374971005328954
0.000374971005325279
0.000374971005321661
0.000374971005318118
0.000374971005314677
0.000374971005311325
0.000374971005308097
0.000374971005305032
0.00037497100530206
0.000374971005299261
0.000374971005296578
0.000374971005294064
0.000374971005291698
0.000374971005289455
0.00037497100528737
0.000374971005285427
0.000374971005283623
0.000374971005281988
0.000374971005280457
0.000374971005279071
0.000374971005277732
0.000374971005275896
0.000374971005268636
0.000374971005212274
0.000374971004714987
0.000374971000260451
0.000374970960286446
0.0003749706014904
0.000374967380939128
0.000374938473181776
0.000374678996148841
0.000372349920129329
0.000361750243058774
0.000361787055974071
0.00037242879549282
0.000374692194260762
0.00037494445734214
0.000374972530788448
0.000374975650839494
0.000374975996873687
0.000374976035137031
0.000374976039350333
0.000374976039810117
0.000374976039857735
0.00037497603986007
0.00037497603985736
0.000374976039853934
0.000374976039850366
0.000374976039846709
0.000374976039843068
0.000374976039839427
0.00037497603983582
0.000374976039832269
0.00037497603982879
0.000374976039825412
0.000374976039822129
0.000374976039818964
0.000374976039815959
0.000374976039813045
0.000374976039810309
0.000374976039807677
0.000374976039805219
0.000374976039802898
0.000374976039800712
0.000374976039798679
0.00037497603979678
0.000374976039795021
0.000374976039793429
0.000374976039791938
0.000374976039790591
0.000374976039789289
0.000374976039787486
0.00037497603978027
0.000374976039723937
0.000374976039226688
0.000374976034772222
0.000374975994798543
0.000374975636005529
0.00037497241548527
0.000374943508043205
0.000374684034152523
0.000372354988558625
0.000361758101584387
0.000361788476980533
0.000372430216037482
0.000374693759702054
0.000374946101991352
0.000374974202925217
0.000374977330326518
0.000374977678009313
0.000374977716597787
0.00037497772086918
0.000374977721338582
0.000374977721387726
0.000374977721390341
0.000374977721387726
0.000374977721384384
0.000374977721380885
0.000374977721377311
0.000374977721373748
0.000374977721370178
0.000374977721366663
0.000374977721363184
0.000374977721359787
0.000374977721356485
0.000374977721353281
0.000374977721350195
0.00037497772134726
0.000374977721344418
0.00037497772134175
0.000374977721339181
0.000374977721336788
0.000374977721334521
0.000374977721332404
0.000374977721330427
0.000374977721328586
0.00037497772132688
0.000374977721325336
0.000374977721323894
0.000374977721322594
0.000374977721321336
0.000374977721319577
0.000374977721312399
0.000374977721256109
0.000374977720758906
0.000374977716304498
0.000374977676331056
0.00037497731754006
0.00037497409704149
0.00037494518983626
0.000374685718523355
0.000372356700849533
0.000361760927598886
0.000361788960280133
0.000372430689701857
0.000374694278774249
0.000374946648972726
0.000374974760530741
0.000374977891016577
0.000374978239445266
0.000374978278191443
0.000374978282492907
0.000374978282967618
0.000374978283017667
0.000374978283020489
0.000374978283017965
0.000374978283014696
0.000374978283011293
0.0003749782830078
0.000374978283004318
0.000374978283000831
0.000374978282997399
0.000374978282994
0.000374978282990689
0.000374978282987463
0.000374978282984344
0.000374978282981332
0.000374978282978464
0.000374978282975702
0.000374978282973096
0.000374978282970604
0.000374978282968275
0.000374978282966073
0.000374978282964016
0.000374978282962094
0.000374978282960312
0.000374978282958659
0.000374978282957161
0.000374978282955771
0.000374978282954514
0.000374978282953298
0.000374978282951578
0.000374978282944438
0.000374978282888202
0.000374978282391046
0.000374978277936683
0.000374978237963396
0.000374977879173432
0.00037497465868596
0.000374945751604523
0.000374686281671884
0.000372357279355891
0.000361761940652701
0.000361789124686633
0.000372430847883927
0.000374694450972574
0.000374946830852301
0.000374974946431434
0.000374978078177986
0.000374978426933746
0.000374978465753741
0.00037497847007018
0.000374978470547722
0.000374978470598303
0.00037497847060128
0.000374978470598847
0.000374978470595676
0.000374978470592364
0.000374978470588966
0.000374978470585581
0.000374978470582187
0.000374978470578852
0.000374978470575551
0.00037497847057233
0.000374978470569206
0.000374978470566172
0.000374978470563242
0.00037497847056047
0.000374978470557787
0.000374978470555265
0.000374978470552847
0.000374978470550593
0.000374978470548472
0.000374978470546479
0.000374978470544629
0.000374978470542906
0.000374978470541315
0.000374978470539881
0.000374978470538543
0.000374978470537335
0.000374978470536166
0.000374978470534493
0.000374978470527401
0.000374978470471217
0.000374978469974114
0.000374978465519813
0.000374978425546629
0.000374978066757166
0.000374974846274731
0.000374945939249828
0.000374686469954703
0.000372357474819517
0.000361762302779195
0.000361789180624171
0.000372430900785413
0.000374694508128512
0.000374946891319718
0.000374975008393621
0.000374978140643972
0.000374978489539365
0.000374978528392875
0.000374978532716532
0.000374978533195533
0.000374978533246431
0.000374978533249527
0.000374978533247178
0.000374978533244112
0.000374978533240885
0.000374978533237599
0.00037497853323431
0.000374978533231018
0.000374978533227782
0.000374978533224577
0.000374978533221451
0.000374978533218419
0.000374978533215472
0.000374978533212635
0.000374978533209949
0.000374978533207346
0.000374978533204911
0.00037497853320257
0.000374978533200395
0.00037497853319835
0.000374978533196422
0.00037497853319464
0.00037497853319298
0.000374978533191449
0.000374978533190073
0.000374978533188786
0.000374978533187632
0.000374978533186511
0.000374978533184884
0.000374978533177845
0.000374978533121699
0.000374978532624648
0.00037497852817042
0.000374978488197306
0.000374978129408096
0.000374974908927813
0.000374946001926896
0.000374686532904833
0.000372357540866864
0.000361762431896331
0.000361789199659244
0.000372430918499095
0.000374694527108008
0.000374946911417397
0.000374975029038282
0.00037497816148608
0.000374978510439722
0.000374978549308055
0.000374978553635097
0.000374978554114833
0.000374978554165946
0.000374978554169156
0.000374978554166908
0.000374978554163934
0.000374978554160823
0.000374978554157647
0.000374978554154469
0.000374978554151287
0.000374978554148157
0.000374978554145062
0.000374978554142042
0.000374978554139102
0.000374978554136268
0.000374978554133531
0.000374978554130932
0.000374978554128434
0.000374978554126085
0.000374978554123839
0.000374978554121749
0.000374978554119778
0.000374978554117939
0.000374978554116228
0.000374978554114646
0.000374978554113184
0.000374978554111864
0.000374978554110647
0.000374978554109553
0.000374978554108488
0.000374978554106913
0.000374978554099929
0.000374978554043843
0.000374978553546854
0.00037497854909269
0.000374978509119654
0.000374978150330591
0.000374974929851201
0.000374946022860072
0.000374686553949638
0.00037235756318306
0.000361762477827325
0.000361789206137944
0.000372430924435717
0.000374694533412056
0.000374946918094396
0.000374975035912643
0.000374978168436519
0.000374978517413967
0.000374978556288707
0.000374978560617306
0.000374978561097425
0.000374978561148685
0.000374978561152
0.000374978561149861
0.000374978561146982
0.000374978561143979
0.000374978561140908
0.00037497856113784
0.000374978561134769
0.000374978561131746
0.000374978561128769
0.000374978561125845
0.000374978561123004
0.000374978561120273
0.000374978561117637
0.000374978561115134
0.000374978561112732
0.000374978561110477
0.000374978561108311
0.000374978561106304
0.000374978561104422
0.000374978561102655
0.000374978561101024
0.000374978561099507
0.000374978561098112
0.000374978561096853
0.000374978561095699
0.000374978561094662
0.000374978561093649
0.000374978561092125
0.000374978561085187
0.000374978561029161
0.000374978560532229
0.000374978556078128
0.000374978516105177
0.000374978157316214
0.000374974936837185
0.00037494602984991
0.000374686560983822
0.000372357570723834
0.000361762494133002
0.000361789208342416
0.000372430926424391
0.000374694535503435
0.000374946920308733
0.000374975038197331
0.000374978170750073
0.000374978519737076
0.000374978558614532
0.000374978562943846
0.00037497856342418
0.000374978563475554
0.000374978563478972
0.000374978563476947
0.000374978563474178
0.000374978563471289
0.000374978563468336
0.000374978563465387
0.000374978563462435
0.000374978563459532
0.000374978563456674
0.00037497856345386
0.000374978563451132
0.000374978563448513
0.000374978563445987
0.000374978563443589
0.000374978563441286
0.000374978563439135
0.000374978563437063
0.000374978563435151
0.000374978563433361
0.000374978563431676
0.00037497856343013
0.000374978563428692
0.000374978563427373
0.000374978563426186
0.000374978563425099
0.000374978563424128
0.000374978563423175
0.000374978563421708
0.000374978563414831
0.000374978563358852
0.000374978562861989
0.000374978558407976
0.000374978518435106
0.000374978159646233
0.000374974939167371
0.000374946032181551
0.00037468656333272
0.000372357573270986
0.000361762499910201
0.000361789209092087
0.00037243092708862
0.000374694536194866
0.000374946921040191
0.000374975038953584
0.000374978171517127
0.000374978520507898
0.000374978559386488
0.000374978563716134
0.000374978564196604
0.000374978564248072
0.000374978564251589
0.000374978564249655
0.000374978564247008
0.00037497856424424
0.000374978564241405
0.000374978564238573
0.000374978564235739
0.000374978564232949
0.000374978564230194
0.000374978564227505
0.000374978564224888
0.000374978564222378
0.000374978564219956
0.000374978564217659
0.000374978564215456
0.000374978564213389
0.000374978564211425
0.000374978564209604
0.000374978564207888
0.0003749785642063
0.000374978564204826
0.000374978564203474
0.00037497856420223
0.000374978564201113
0.000374978564200089
0.000374978564199186
0.000374978564198282
0.000374978564196868
0.000374978564190047
0.000374978564134132
0.000374978563637337
0.000374978559183393
0.000374978519210606
0.000374978160421817
0.000374974939943044
0.000374946032957772
0.000374686564115601
0.000372357574129851
0.000361762501953642
0.000361789209345312
0.000372430927307056
0.000374694536419388
0.000374946921277629
0.000374975039199704
0.000374978171767242
0.000374978520759475
0.000374978559638536
0.000374978563968349
0.00037497856444893
0.000374978564500483
0.000374978564504105
0.000374978564502278
0.000374978564499749
0.000374978564497118
0.000374978564494397
0.00037497856449169
0.000374978564488985
0.000374978564486317
0.000374978564483686
0.000374978564481116
0.000374978564478618
0.000374978564476227
0.000374978564473915
0.00037497856447174
0.000374978564469638
0.000374978564467671
0.000374978564465813
0.000374978564464092
0.000374978564462467
0.000374978564460974
0.000374978564459586
0.000374978564458322
0.000374978564457159
0.000374978564456127
0.000374978564455166
0.00037497856445433
0.000374978564453488
0.000374978564452135
0.000374978564445367
0.000374978564389526
0.000374978563892804
0.000374978559438933
0.000374978519466249
0.000374978160677549
0.000374974940198839
0.000374946033213763
0.00037468656437407
0.000372357574415714
0.000361762502674312
0.000361789209429503
0.000372430927376019
0.000374694536489268
0.00037494692135161
0.000374975039276699
0.000374978171845694
0.000374978520838484
0.000374978559717741
0.000374978564047647
0.00037497856452831
0.000374978564579952
0.000374978564583685
0.000374978564581972
0.00037497856457955
0.00037497856457704
0.000374978564574435
0.000374978564571853
0.000374978564569281
0.000374978564566721
0.000374978564564216
0.000374978564561759
0.000374978564559378
0.000374978564557106
0.000374978564554895
0.000374978564552828
0.000374978564550836
0.000374978564548961
0.000374978564547204
0.000374978564545587
0.000374978564544044
0.000374978564542638
0.000374978564541335
0.000374978564540152
0.000374978564539068
0.000374978564538107
0.000374978564537213
0.000374978564536432
0.00037497856453566
0.000374978564534366
0.000374978564527653
0.000374978564471866
0.000374978563975222
0.000374978559521435
0.000374978519548842
0.00037497816076023
0.00037497494028157
0.000374946033296491
0.000374686564457731
0.000372357574510589
0.000361762502928014
0.000361789209454902
0.000372430927393871
0.000374694536506563
0.000374946921370241
0.000374975039296416
0.000374978171865939
0.000374978520858936
0.00037497855973828
0.000374978564068248
0.000374978564548973
0.00037497856460072
0.000374978564604565
0.000374978564602969
0.000374978564600668
0.00037497856459827
0.000374978564595805
0.000374978564593354
0.000374978564590914
0.000374978564588475
0.0003749785645861
0.000374978564583763
0.000374978564581505
0.00037497856457936
0.000374978564577258
0.000374978564575293
0.000374978564573429
0.000374978564571664
0.000374978564570019
0.000374978564568504
0.000374978564567055
0.000374978564565746
0.000374978564564535
0.000374978564563441
0.000374978564562442
0.000374978564561549
0.000374978564560739
0.000374978564560026
0.000374978564559323
0.000374978564558097
0.000374978564551447
0.000374978564495723
0.000374978563999157
0.000374978559545465
0.000374978519572966
0.000374978160784448
0.000374974940305851
0.000374946033320769
0.00037468656448243
0.000372357574540728
0.000361762503016005
0.000361789209460289
0.000372430927395021
0.000374694536507222
0.000374946921371325
0.000374975039297908
0.000374978171867608
0.000374978520860677
0.000374978559740063
0.000374978564070082
0.000374978564550872
0.000374978564602709
0.000374978564606644
0.000374978564605177
0.000374978564603009
0.000374978564600732
0.00037497856459838
0.00037497856459605
0.000374978564593722
0.000374978564591417
0.000374978564589149
0.000374978564586944
0.000374978564584804
0.000374978564582763
0.000374978564580784
0.000374978564578927
0.000374978564577163
0.000374978564575515
0.00037497856457398
0.000374978564572544
0.0003749785645712
0.000374978564569981
0.000374978564568858
0.000374978564567848
0.000374978564566939
0.000374978564566109
0.000374978564565371
0.000374978564564724
0.000374978564564084
0.000374978564562928
0.00037497856455634
0.00037497856450067
0.000374978564004164
0.000374978559550571
0.000374978519578169
0.000374978160789744
0.000374974940311197
0.000374946033326071
0.000374686564487708
0.000372357574548466
0.000361762503045754
0.000361789209457628
0.000372430927389783
0.000374694536501315
0.000374946921365622
0.000374975039292388
0.000374978171862162
0.000374978520855258
0.00037497855973467
0.000374978564064737
0.000374978564545598
0.000374978564597526
0.000374978564601564
0.000374978564600215
0.000374978564598176
0.000374978564596027
0.000374978564593801
0.0003749785645916
0.00037497856458941
0.000374978564587224
0.00037497856458508
0.000374978564583004
0.000374978564580988
0.000374978564579078
0.00037497856457721
0.000374978564575467
0.000374978564573818
0.000374978564572285
0.000374978564570857
0.000374978564569531
0.000374978564568285
0.00037497856456716
0.000374978564566131
0.000374978564565211
0.000374978564564389
0.000374978564563639
0.000374978564562978
0.000374978564562402
0.000374978564561831
0.000374978564560744
0.000374978564554224
0.000374978564498626
0.000374978564002188
0.000374978559548682
0.000374978519576402
0.000374978160788068
0.000374974940309565
0.000374946033324458
0.0003746865644861
0.000372357574546608
0.000361762503054039
0.000361789209452242
0.000372430927382949
0.000374694536494155
0.000374946921358547
0.000374975039285394
0.000374978171855213
0.000374978520848317
0.000374978559727749
0.000374978564057859
0.000374978564538789
0.000374978564590806
0.000374978564594945
0.000374978564593692
0.000374978564591773
0.000374978564589749
0.000374978564587659
0.000374978564585582
0.000374978564583512
0.00037497856458145
0.000374978564579429
0.000374978564577469
0.000374978564575573
0.000374978564573777
0.000374978564572019
0.00037497856457039
0.000374978564568847
0.000374978564567413
0.000374978564566075
0.000374978564564863
0.000374978564563714
0.000374978564562683
0.000374978564561742
0.000374978564560907
0.000374978564560159
0.000374978564559494
0.000374978564558905
0.000374978564558394
0.000374978564557886
0.000374978564556853
0.000374978564550401
0.000374978564494871
0.000374978563998505
0.000374978559545096
0.000374978519572914
0.000374978160784676
0.000374974940306224
0.00037494603332109
0.000374686564482885
0.000372357574544723
0.00036176250305531
0.000361789209444654
0.000372430927374843
0.000374694536485596
0.000374946921350099
0.00037497503927703
0.000374978171846874
0.000374978520839981
0.000374978559719431
0.000374978564049586
0.00037497856453059
0.000374978564582693
0.000374978564586935
0.000374978564585795
0.000374978564583996
0.000374978564582108
0.00037497856458014
0.000374978564578186
0.000374978564576234
0.000374978564574311
0.000374978564572413
0.000374978564570583
0.000374978564568811
0.000374978564567117
0.000374978564565493
0.000374978564563983
0.000374978564562544
0.000374978564561224
0.000374978564559992
0.000374978564558875
0.000374978564557852
0.000374978564556912
0.000374978564556064
0.00037497856455532
0.000374978564554664
0.000374978564554077
0.00037497856455356
0.000374978564553123
0.000374978564552684
0.000374978564551722
0.000374978564545331
0.000374978564489861
0.000374978563993586
0.000374978559540272
0.000374978519568189
0.000374978160780066
0.000374974940301669
0.000374946033316455
0.000374686564477956
0.000372357574540933
0.000361762503052775
0.000361789209436141
0.000372430927366841
0.000374694536477481
0.000374946921342054
0.000374975039269043
0.000374978171838901
0.00037497852083201
0.000374978559711476
0.000374978564041673
0.000374978564522756
0.000374978564574933
0.000374978564579274
0.000374978564578243
0.000374978564576559
0.000374978564574791
0.000374978564572939
0.000374978564571106
0.000374978564569273
0.000374978564567472
0.000374978564565693
0.000374978564563983
0.000374978564562336
0.000374978564560739
0.000374978564559232
0.000374978564557841
0.000374978564556495
0.000374978564555281
0.000374978564554149
0.000374978564553124
0.000374978564552203
0.000374978564551357
0.000374978564550598
0.000374978564549938
0.00037497856454936
0.000374978564548856
0.000374978564548404
0.000374978564548034
0.000374978564547658
0.000374978564546756
0.000374978564540425
0.000374978564485022
0.000374978563988824
0.000374978559535593
0.000374978519563623
0.000374978160775606
0.000374974940297268
0.000374946033312001
0.000374686564473404
0.000372357574535156
0.000361762503049227
0.000361789209425451
0.000372430927358008
0.000374694536468436
0.000374946921333089
0.000374975039260151
0.000374978171830026
0.00037497852082314
0.000374978559702625
0.000374978564032861
0.000374978564514013
0.000374978564566278
0.000374978564570717
0.000374978564569795
0.000374978564568233
0.000374978564566569
0.000374978564564857
0.000374978564563145
0.000374978564561435
0.000374978564559761
0.000374978564558101
0.000374978564556509
0.00037497856455498
0.000374978564553501
0.000374978564552112
0.000374978564550833
0.000374978564549597
0.000374978564548496
0.000374978564547466
0.000374978564546541
0.000374978564545712
0.000374978564544971
0.000374978564544305
0.000374978564543738
0.000374978564543237
0.000374978564542822
0.000374978564542447
0.00037497856454215
0.000374978564541841
0.000374978564540992
0.000374978564534736
0.000374978564479404
0.00037497856398329
0.000374978559530154
0.000374978519558296
0.000374978160770392
0.000374974940292126
0.000374946033306845
0.000374686564468194
0.000372357574530096
0.000361762503044113
0.000361789209412029
0.000372430927348892
0.000374694536459526
0.000374946921324111
0.000374975039251218
0.000374978171821106
0.000374978520814236
0.000374978559693737
0.000374978564023999
0.0003749785645052
0.000374978564557573
0.000374978564562095
0.000374978564561277
0.000374978564559836
0.000374978564558269
0.00037497856455669
0.000374978564555084
0.000374978564553489
0.000374978564551941
0.000374978564550383
0.0003749785645489
0.000374978564547469
0.000374978564546112
0.000374978564544828
0.000374978564543641
0.000374978564542525
0.000374978564541532
0.00037497856454059
0.000374978564539762
0.000374978564539021
0.00037497856453837
0.000374978564537794
0.000374978564537319
0.000374978564536884
0.000374978564536537
0.000374978564536254
0.000374978564536025
0.000374978564535777
0.000374978564534976
0.000374978564528772
0.000374978564473518
0.000374978563977483
0.000374978559524443
0.000374978519552693
0.000374978160764902
0.000374974940286725
0.000374946033301423
0.000374686564462869
0.000372357574525079
0.000361762503037994
0.000361789209390603
0.000372430927337172
0.000374694536447645
0.000374946921312342