/*--------------------------------*- C++ -*----------------------------------*\
  =========                 |
  \\      /  F ield         | OpenFOAM: The Open Source CFD Toolbox
   \\    /   O peration     | Website:  https://openfoam.org
    \\  /    A nd           | Version:  10
     \\/     M anipulation  |
\*---------------------------------------------------------------------------*/
FoamFile
{
    format      ascii;
    class       volScalarField;
    location    "0.2";
    object      nut;
}
// * * * * * * * * * * * * * * * * * * * * * * * * * * * * * * * * * * * * * //

dimensions      [0 2 -1 0 0 0 0];

internalField   nonuniform List<scalar> 
2500
(
2.53816279961458e-09
2.58732259864783e-09
2.5919723375974e-09
2.59241125053967e-09
2.59245404427971e-09
2.59245826733125e-09
2.59245868792423e-09
2.5924587301498e-09
2.59245873442076e-09
2.5924587349558e-09
2.59245873509976e-09
2.59245873496197e-09
2.59245873492835e-09
2.59245873490663e-09
2.59245873485646e-09
2.59245873479975e-09
2.5924587345997e-09
2.59245873454357e-09
2.59245873449593e-09
2.59245873445178e-09
2.59245873440547e-09
2.59245873436186e-09
2.59245873432018e-09
2.59245873427622e-09
2.59245873423584e-09
2.59245873419733e-09
2.59245873415746e-09
2.59245873412087e-09
2.59245873408825e-09
2.59245873406323e-09
2.59245873402013e-09
2.59245873398847e-09
2.59245873395934e-09
2.59245873393193e-09
2.59245873390632e-09
2.59245873388263e-09
2.59245873386126e-09
2.59245873383887e-09
2.59245873381395e-09
2.59245873368061e-09
2.59245873239465e-09
2.5924587219088e-09
2.59245863875726e-09
2.5924579925796e-09
2.59245309681717e-09
2.59241724047363e-09
2.59216645641108e-09
2.59052394140275e-09
2.58078999023587e-09
2.53749727875741e-09
1.10731607908362e-08
2.5488518538887e-08
2.55564340751123e-08
2.556274197909e-08
2.55633348043629e-08
2.55633911068403e-08
2.55633965101393e-08
2.55633970340411e-08
2.55633970853544e-08
2.55633970910752e-08
2.55633970919904e-08
2.55633970909033e-08
2.55633970911914e-08
2.5563397090672e-08
2.55633970907371e-08
2.55633970897652e-08
2.55633970890728e-08
2.55633970887347e-08
2.55633970883839e-08
2.55633970880961e-08
2.55633970877455e-08
2.5563397087436e-08
2.5563397087159e-08
2.55633970868183e-08
2.55633970865241e-08
2.55633970862627e-08
2.55633970859451e-08
2.55633970856701e-08
2.55633970854428e-08
2.55633970854002e-08
2.55633970849211e-08
2.55633970846611e-08
2.55633970844332e-08
2.55633970842166e-08
2.55633970840123e-08
2.55633970838229e-08
2.55633970836671e-08
2.55633970834749e-08
2.55633970834565e-08
2.55633970826945e-08
2.55633970788501e-08
2.55633970420026e-08
2.5563396721702e-08
2.55633939416898e-08
2.55633700611112e-08
2.55631682303712e-08
2.55615023022144e-08
2.5548240698854e-08
2.54487818661817e-08
1.10139434682509e-08
1.13384691650119e-08
1.04872168018916e-07
7.31814626496817e-06
7.3214115786247e-06
7.3217137118084e-06
7.32174179026459e-06
7.32174441423488e-06
7.32174466105101e-06
7.32174468443219e-06
7.3217446867012e-06
7.32174468687576e-06
7.32174468678059e-06
7.32174468678231e-06
7.32174468663316e-06
7.3217446866439e-06
7.32174468648178e-06
7.32174468636623e-06
7.32174468630878e-06
7.32174468619769e-06
7.32174468614413e-06
7.32174468603187e-06
7.3217446859539e-06
7.32174468590628e-06
7.3217446857996e-06
7.32174468572751e-06
7.3217446856849e-06
7.32174468558669e-06
7.32174468551886e-06
7.32174468547357e-06
7.32174468540472e-06
7.32174468533812e-06
7.32174468528153e-06
7.32174468522949e-06
7.32174468518028e-06
7.32174468513411e-06
7.32174468509274e-06
7.32174468507767e-06
7.32174468501352e-06
7.32174468495602e-06
7.32174468481515e-06
7.32174468372853e-06
7.32174467394791e-06
7.32174458667993e-06
7.3217438100216e-06
7.32173690960698e-06
7.32167581447321e-06
7.32113746173139e-06
7.3164246680435e-06
1.04767811496567e-07
1.13021365970716e-08
1.14259468265621e-08
1.05812125070163e-07
7.38957819096671e-06
7.3937868223554e-06
7.39420427091259e-06
7.39424509423048e-06
7.39424904885795e-06
7.39424942966128e-06
7.3942494661951e-06
7.39424946967919e-06
7.39424946996417e-06
7.39424946991458e-06
7.39424946984878e-06
7.39424946977242e-06
7.39424946970871e-06
7.3942494696169e-06
7.39424946953185e-06
7.39424946944519e-06
7.39424946937103e-06
7.39424946928769e-06
7.39424946920969e-06
7.39424946914024e-06
7.39424946906293e-06
7.39424946899014e-06
7.3942494689274e-06
7.39424946885736e-06
7.39424946879348e-06
7.39424946873156e-06
7.39424946868793e-06
7.39424946862083e-06
7.39424946856706e-06
7.39424946851881e-06
7.3942494684729e-06
7.39424946842941e-06
7.3942494683879e-06
7.39424946835014e-06
7.3942494683122e-06
7.39424946828304e-06
7.39424946823896e-06
7.39424946810176e-06
7.39424946698325e-06
7.39424945714958e-06
7.39424936927362e-06
7.39424858218942e-06
7.39424153560961e-06
7.39417850135183e-06
7.39361528868611e-06
7.38859080886282e-06
1.05751594810084e-07
1.14080378654276e-08
1.14553667709657e-08
1.06119453117579e-07
7.41311623018204e-06
7.41778493498359e-06
7.41827341296738e-06
7.41832364163215e-06
7.41832873154104e-06
7.41832924116355e-06
7.41832929167514e-06
7.41832929661144e-06
7.41832929705125e-06
7.41832929702096e-06
7.41832929695546e-06
7.41832929688464e-06
7.41832929680974e-06
7.41832929672937e-06
7.41832929665338e-06
7.41832929656962e-06
7.41832929649665e-06
7.4183292964156e-06
7.41832929634039e-06
7.41832929627226e-06
7.41832929619709e-06
7.41832929612771e-06
7.41832929606677e-06
7.41832929599954e-06
7.41832929594313e-06
7.41832929588027e-06
7.41832929582995e-06
7.41832929577396e-06
7.41832929572464e-06
7.41832929568352e-06
7.418329295641e-06
7.41832929560022e-06
7.41832929555833e-06
7.41832929552344e-06
7.41832929549109e-06
7.4183292954617e-06
7.41832929542483e-06
7.41832929527285e-06
7.4183292941586e-06
7.41832928430825e-06
7.41832919613559e-06
7.41832840531563e-06
7.41832131154263e-06
7.41825769133713e-06
7.41768728011384e-06
7.41257503764624e-06
1.06081649151333e-07
1.14470442399793e-08
1.14653228498144e-08
1.06220560078074e-07
7.42089793660731e-06
7.42576701207113e-06
7.42629283019045e-06
7.42634883609491e-06
7.42635472122061e-06
7.42635533183915e-06
7.4263553944428e-06
7.42635540075822e-06
7.42635540134187e-06
7.42635540133953e-06
7.42635540127635e-06
7.42635540120476e-06
7.42635540113025e-06
7.42635540105316e-06
7.42635540097924e-06
7.42635540090054e-06
7.42635540082362e-06
7.4263554007489e-06
7.4263554006732e-06
7.42635540060293e-06
7.4263554005342e-06
7.42635540046463e-06
7.42635540040182e-06
7.42635540034119e-06
7.42635540027947e-06
7.42635540022309e-06
7.42635540017323e-06
7.42635540011989e-06
7.42635540007217e-06
7.42635540002763e-06
7.42635539998645e-06
7.42635539994724e-06
7.42635539991254e-06
7.4263553998797e-06
7.426355399851e-06
7.4263553998206e-06
7.42635539978123e-06
7.42635539963581e-06
7.42635539851961e-06
7.42635538866362e-06
7.42635530041164e-06
7.42635450857118e-06
7.42634740219095e-06
7.42628362737267e-06
7.42571133016844e-06
7.42057617446344e-06
1.06192869914734e-07
1.14613692352737e-08
1.14687003248125e-08
1.06253940143119e-07
7.42347349791311e-06
7.4284241583898e-06
7.42896777471844e-06
7.42902693318452e-06
7.42903330640112e-06
7.4290339857677e-06
7.42903405739683e-06
7.42903406483295e-06
7.42903406555002e-06
7.42903406556468e-06
7.42903406550377e-06
7.4290340654326e-06
7.42903406535878e-06
7.42903406528326e-06
7.42903406520773e-06
7.42903406513108e-06
7.42903406505667e-06
7.42903406498191e-06
7.42903406490949e-06
7.42903406483962e-06
7.42903406477067e-06
7.42903406470433e-06
7.42903406464198e-06
7.42903406458108e-06
7.42903406452268e-06
7.42903406446769e-06
7.42903406441607e-06
7.42903406436659e-06
7.42903406432031e-06
7.4290340642773e-06
7.42903406423673e-06
7.42903406419909e-06
7.42903406416532e-06
7.42903406413342e-06
7.42903406410392e-06
7.42903406407616e-06
7.42903406403835e-06
7.42903406389372e-06
7.42903406277508e-06
7.42903405292006e-06
7.42903396465217e-06
7.42903317257983e-06
7.4290260633328e-06
7.42896225294904e-06
7.42838951678406e-06
7.42324896618835e-06
1.06230406619985e-07
1.14666063352394e-08
1.14698473584388e-08
1.0626498825496e-07
7.42432634201992e-06
7.42930874000386e-06
7.42986028871214e-06
7.42992103031031e-06
7.42992767599129e-06
7.42992839754755e-06
7.42992847521017e-06
7.42992848345661e-06
7.42992848427815e-06
7.42992848430597e-06
7.42992848424759e-06
7.42992848417723e-06
7.42992848410429e-06
7.42992848402978e-06
7.42992848395506e-06
7.42992848387988e-06
7.42992848380623e-06
7.42992848373285e-06
7.42992848366157e-06
7.42992848359272e-06
7.42992848352467e-06
7.42992848345949e-06
7.4299284833981e-06
7.42992848333772e-06
7.42992848328121e-06
7.42992848322686e-06
7.42992848317586e-06
7.42992848312798e-06
7.42992848308242e-06
7.4299284830404e-06
7.42992848300065e-06
7.42992848296396e-06
7.42992848293109e-06
7.42992848289962e-06
7.4299284828712e-06
7.42992848284398e-06
7.42992848280688e-06
7.42992848266231e-06
7.42992848154474e-06
7.42992847169003e-06
7.42992838341991e-06
7.42992759131317e-06
7.4299204815919e-06
7.42985666498808e-06
7.42928384842134e-06
7.42414226937304e-06
1.06243082340119e-07
1.14685120418217e-08
1.14702371339068e-08
1.06268652632886e-07
7.42460882538894e-06
7.42960316213378e-06
7.43015807614595e-06
7.43021956511236e-06
7.43022635237953e-06
7.43022709785241e-06
7.43022717921809e-06
7.43022718799994e-06
7.43022718889485e-06
7.43022718893355e-06
7.43022718887775e-06
7.43022718880838e-06
7.4302271887367e-06
7.430227188663e-06
7.43022718858948e-06
7.43022718851601e-06
7.43022718844318e-06
7.4302271883715e-06
7.43022718830128e-06
7.4302271882331e-06
7.43022718816668e-06
7.43022718810271e-06
7.43022718804197e-06
7.43022718798309e-06
7.43022718792762e-06
7.43022718787446e-06
7.43022718782465e-06
7.43022718777776e-06
7.43022718773332e-06
7.430227187692e-06
7.43022718765349e-06
7.43022718761774e-06
7.43022718758534e-06
7.43022718755502e-06
7.43022718752754e-06
7.43022718750102e-06
7.43022718746463e-06
7.43022718732078e-06
7.43022718620393e-06
7.43022717634996e-06
7.43022708808123e-06
7.43022629597747e-06
7.43021918626473e-06
7.43015536952348e-06
7.42958254868768e-06
7.42444088898918e-06
1.06247363758497e-07
1.14692024797342e-08
1.14703696330795e-08
1.06269870310762e-07
7.42470241826538e-06
7.42970113011716e-06
7.43025741868695e-06
7.43031924396893e-06
7.43032610079955e-06
7.43032685900574e-06
7.4303269424943e-06
7.43032695160514e-06
7.43032695254871e-06
7.43032695259498e-06
7.43032695254128e-06
7.4303269524734e-06
7.43032695240269e-06
7.43032695233024e-06
7.43032695225809e-06
7.43032695218593e-06
7.43032695211446e-06
7.43032695204409e-06
7.43032695197516e-06
7.43032695190822e-06
7.43032695184316e-06
7.43032695178044e-06
7.43032695172091e-06
7.43032695166316e-06
7.43032695160894e-06
7.43032695155678e-06
7.43032695150809e-06
7.43032695146209e-06
7.43032695141876e-06
7.43032695137849e-06
7.43032695134087e-06
7.43032695130601e-06
7.43032695127447e-06
7.43032695124491e-06
7.43032695121823e-06
7.43032695119242e-06
7.43032695115671e-06
7.4303269510137e-06
7.43032694989744e-06
7.43032694004422e-06
7.43032685177689e-06
7.43032605967959e-06
7.43031895002691e-06
7.43025513390018e-06
7.42968231931185e-06
7.4245407218798e-06
1.06248810034983e-07
1.14694516410337e-08
1.14704146867289e-08
1.06270275658e-07
7.42473343853753e-06
7.4297337199276e-06
7.43029055317596e-06
7.43035252410665e-06
7.43035941360511e-06
7.43036017825391e-06
7.43036026289357e-06
7.43036027219499e-06
7.4303602731688e-06
7.43036027322061e-06
7.4303602731688e-06
7.43036027310258e-06
7.43036027303324e-06
7.43036027296243e-06
7.43036027289183e-06
7.43036027282109e-06
7.43036027275142e-06
7.43036027268248e-06
7.43036027261517e-06
7.43036027254974e-06
7.43036027248626e-06
7.4303602724251e-06
7.43036027236696e-06
7.43036027231063e-06
7.43036027225776e-06
7.43036027220687e-06
7.43036027215944e-06
7.43036027211451e-06
7.43036027207256e-06
7.4303602720334e-06
7.4303602719969e-06
7.43036027196311e-06
7.43036027193251e-06
7.43036027190394e-06
7.43036027187817e-06
7.43036027185325e-06
7.43036027181839e-06
7.43036027167616e-06
7.43036027056075e-06
7.43036026070844e-06
7.43036017244224e-06
7.43035938034965e-06
7.43035227073697e-06
7.43028845504001e-06
7.42971564514465e-06
7.4245740987927e-06
1.06249298629492e-07
1.14695412403239e-08
1.1470430009758e-08
1.06270410815368e-07
7.42474372423751e-06
7.42974455866047e-06
7.4303016024313e-06
7.43036363448351e-06
7.43037053876218e-06
7.43037130653594e-06
7.43037139177149e-06
7.4303714011781e-06
7.43037140216985e-06
7.43037140222577e-06
7.43037140217576e-06
7.43037140211097e-06
7.43037140204354e-06
7.43037140197434e-06
7.43037140190533e-06
7.43037140183624e-06
7.43037140176822e-06
7.43037140170088e-06
7.43037140163527e-06
7.43037140157134e-06
7.43037140150954e-06
7.43037140144985e-06
7.43037140139303e-06
7.4303714013383e-06
7.43037140128666e-06
7.43037140123728e-06
7.43037140119112e-06
7.43037140114748e-06
7.43037140110674e-06
7.43037140106863e-06
7.43037140103332e-06
7.43037140100058e-06
7.43037140097089e-06
7.43037140094335e-06
7.43037140091845e-06
7.43037140089435e-06
7.43037140086028e-06
7.43037140071879e-06
7.43037139960445e-06
7.43037138975306e-06
7.43037130148776e-06
7.43037050939823e-06
7.43036339980601e-06
7.43029958432896e-06
7.42972677688661e-06
7.42458525788531e-06
1.06249463702697e-07
1.14695733591104e-08
1.14704352222438e-08
1.06270455951566e-07
7.42474713643352e-06
7.42974816269488e-06
7.43030528614605e-06
7.43036734317994e-06
7.4303742539397e-06
7.43037502317618e-06
7.43037510870847e-06
7.43037511817118e-06
7.43037511917347e-06
7.43037511923247e-06
7.43037511918425e-06
7.43037511912141e-06
7.43037511905578e-06
7.43037511898845e-06
7.43037511892137e-06
7.43037511885412e-06
7.43037511878804e-06
7.43037511872263e-06
7.43037511865881e-06
7.4303751185969e-06
7.43037511853678e-06
7.43037511847872e-06
7.4303751184238e-06
7.43037511837062e-06
7.43037511832066e-06
7.43037511827273e-06
7.43037511822807e-06
7.43037511818604e-06
7.43037511814656e-06
7.43037511810989e-06
7.43037511807575e-06
7.43037511804422e-06
7.43037511801582e-06
7.43037511798929e-06
7.43037511796535e-06
7.43037511794221e-06
7.43037511790905e-06
7.43037511776851e-06
7.4303751166552e-06
7.43037510680487e-06
7.4303750185408e-06
7.43037422645332e-06
7.43036711687102e-06
7.43030330149377e-06
7.42973049517168e-06
7.42458898880303e-06
1.06249519476908e-07
1.14695848402645e-08
1.14704369957322e-08
1.06270471046634e-07
7.42474826900601e-06
7.42974936088587e-06
7.43030651395661e-06
7.43036858097352e-06
7.43037549450017e-06
7.43037626440077e-06
7.43037635007606e-06
7.4303763595677e-06
7.43037636057628e-06
7.43037636063762e-06
7.43037636059108e-06
7.43037636053032e-06
7.43037636046637e-06
7.43037636040126e-06
7.43037636033609e-06
7.43037636027086e-06
7.43037636020674e-06
7.43037636014323e-06
7.43037636008128e-06
7.43037636002119e-06
7.43037635996281e-06
7.43037635990658e-06
7.43037635985337e-06
7.43037635980178e-06
7.43037635975353e-06
7.43037635970715e-06
7.43037635966405e-06
7.43037635962352e-06
7.43037635958531e-06
7.43037635955001e-06
7.43037635951711e-06
7.43037635948678e-06
7.43037635945951e-06
7.430376359434e-06
7.43037635941113e-06
7.43037635938894e-06
7.43037635935668e-06
7.43037635921721e-06
7.43037635810464e-06
7.43037634825536e-06
7.43037625999273e-06
7.43037546790664e-06
7.43036835832935e-06
7.43030454299475e-06
7.42973173714794e-06
7.42459023619014e-06
1.06249538323051e-07
1.14695889338946e-08
1.14704375992349e-08
1.06270476101107e-07
7.42474864509375e-06
7.42974975913094e-06
7.43030692304038e-06
7.43036899396979e-06
7.43037590865067e-06
7.430376678845e-06
7.43037676458737e-06
7.43037677409356e-06
7.4303767751064e-06
7.43037677517e-06
7.43037677512547e-06
7.43037677506653e-06
7.43037677500488e-06
7.43037677494194e-06
7.43037677487897e-06
7.43037677481593e-06
7.43037677475391e-06
7.43037677469256e-06
7.43037677463272e-06
7.43037677457447e-06
7.43037677451831e-06
7.43037677446408e-06
7.43037677441259e-06
7.43037677436307e-06
7.43037677431652e-06
7.43037677427203e-06
7.43037677423061e-06
7.43037677419156e-06
7.43037677415511e-06
7.4303767741212e-06
7.43037677408985e-06
7.43037677406089e-06
7.43037677403473e-06
7.43037677401063e-06
7.43037677398895e-06
7.43037677396784e-06
7.43037677393663e-06
7.43037677379824e-06
7.43037677268686e-06
7.43037676283879e-06
7.43037667457744e-06
7.43037588249289e-06
7.4303687729185e-06
7.43030495760161e-06
7.42973215194876e-06
7.42459065320296e-06
1.06249544690818e-07
1.14695903901259e-08
1.14704378046405e-08
1.0627047779508e-07
7.42474877001144e-06
7.42974989143882e-06
7.43030705925908e-06
7.43036913169601e-06
7.43037604684863e-06
7.43037681716991e-06
7.43037690294314e-06
7.43037691245693e-06
7.43037691347268e-06
7.43037691353836e-06
7.43037691349599e-06
7.43037691343893e-06
7.43037691337943e-06
7.43037691331857e-06
7.43037691325778e-06
7.43037691319692e-06
7.43037691313702e-06
7.43037691307804e-06
7.43037691302009e-06
7.43037691296379e-06
7.43037691290968e-06
7.43037691285743e-06
7.43037691280784e-06
7.43037691276024e-06
7.43037691271555e-06
7.43037691267265e-06
7.43037691263287e-06
7.43037691259558e-06
7.43037691256056e-06
7.43037691252825e-06
7.43037691249819e-06
7.43037691247055e-06
7.4303769124456e-06
7.43037691242273e-06
7.43037691240217e-06
7.43037691238212e-06
7.43037691235191e-06
7.43037691221443e-06
7.43037691110425e-06
7.43037690125731e-06
7.4303768129972e-06
7.43037602091433e-06
7.43036891134193e-06
7.43030509603218e-06
7.42973229045571e-06
7.42459079258864e-06
1.06249546842525e-07
1.14695909070938e-08
1.14704378745327e-08
1.06270478362534e-07
7.4247488114531e-06
7.42974993531697e-06
7.43030710453125e-06
7.43036917754019e-06
7.43037609288212e-06
7.43037686325724e-06
7.43037694904463e-06
7.43037695856269e-06
7.43037695958069e-06
7.43037695964841e-06
7.43037695960828e-06
7.43037695955341e-06
7.43037695949617e-06
7.43037695943765e-06
7.43037695937922e-06
7.43037695932072e-06
7.43037695926319e-06
7.43037695920657e-06
7.4303769591508e-06
7.43037695909674e-06
7.43037695904484e-06
7.43037695899479e-06
7.43037695894729e-06
7.43037695890165e-06
7.43037695885902e-06
7.43037695881795e-06
7.43037695878008e-06
7.4303769587446e-06
7.43037695871122e-06
7.43037695868057e-06
7.43037695865208e-06
7.43037695862595e-06
7.43037695860242e-06
7.43037695858088e-06
7.43037695856164e-06
7.43037695854275e-06
7.4303769585137e-06
7.43037695837743e-06
7.43037695726818e-06
7.43037694742261e-06
7.43037685916424e-06
7.43037606708299e-06
7.43036895751236e-06
7.43030514220593e-06
7.42973233665827e-06
7.42459083913315e-06
1.06249547569335e-07
1.14695910902585e-08
1.14704378983009e-08
1.06270478552066e-07
7.42474882515412e-06
7.42974994981114e-06
7.43030711951676e-06
7.43036919273972e-06
7.43037610815632e-06
7.43037687855391e-06
7.43037696434788e-06
7.43037697386863e-06
7.43037697488848e-06
7.43037697495817e-06
7.43037697491986e-06
7.43037697486739e-06
7.43037697481256e-06
7.43037697475637e-06
7.43037697470026e-06
7.43037697464411e-06
7.43037697458883e-06
7.43037697453423e-06
7.43037697448095e-06
7.43037697442908e-06
7.43037697437934e-06
7.43037697433135e-06
7.43037697428584e-06
7.43037697424219e-06
7.43037697420124e-06
7.43037697416231e-06
7.43037697412622e-06
7.43037697409222e-06
7.43037697406076e-06
7.43037697403154e-06
7.43037697400476e-06
7.4303769739801e-06
7.43037697395797e-06
7.43037697393768e-06
7.43037697391979e-06
7.43037697390188e-06
7.43037697387385e-06
7.43037697373869e-06
7.43037697263071e-06
7.43037696278647e-06
7.43037687452948e-06
7.43037608244988e-06
7.43036897288093e-06
7.43030515757625e-06
7.42973235203945e-06
7.42459085464631e-06
1.06249547814406e-07
1.14695911550445e-08
1.14704379063293e-08
1.06270478614396e-07
7.42474882960313e-06
7.4297499545161e-06
7.43030712439374e-06
7.43036919769586e-06
7.43037611314144e-06
7.43037688354837e-06
7.43037696934565e-06
7.43037697886859e-06
7.43037697989014e-06
7.4303769799619e-06
7.4303769799257e-06
7.43037697987559e-06
7.43037697982346e-06
7.43037697976954e-06
7.4303769797159e-06
7.43037697966229e-06
7.43037697960942e-06
7.43037697955729e-06
7.43037697950636e-06
7.43037697945687e-06
7.43037697940948e-06
7.43037697936368e-06
7.43037697932058e-06
7.43037697927892e-06
7.43037697923994e-06
7.43037697920313e-06
7.43037697916902e-06
7.43037697913683e-06
7.43037697910724e-06
7.43037697907974e-06
7.43037697905468e-06
7.43037697903165e-06
7.43037697901119e-06
7.43037697899216e-06
7.4303769789756e-06
7.4303769789589e-06
7.4303769789321e-06
7.43037697879799e-06
7.43037697769146e-06
7.43037696784869e-06
7.43037687959314e-06
7.43037608751555e-06
7.43036897794838e-06
7.43030516264496e-06
7.42973235711206e-06
7.424590859768e-06
1.06249547895976e-07
1.1469591177894e-08
1.14704379089986e-08
1.06270478634074e-07
7.42474883098785e-06
7.42974995598207e-06
7.43030712591945e-06
7.43036919925044e-06
7.43037611470704e-06
7.43037688511785e-06
7.43037697091696e-06
7.43037698044153e-06
7.43037698146485e-06
7.43037698153883e-06
7.43037698150489e-06
7.43037698145689e-06
7.43037698140714e-06
7.43037698135553e-06
7.43037698130436e-06
7.4303769812534e-06
7.43037698120267e-06
7.43037698115304e-06
7.43037698110434e-06
7.43037698105716e-06
7.43037698101215e-06
7.43037698096833e-06
7.43037698092737e-06
7.43037698088789e-06
7.43037698085075e-06
7.43037698081592e-06
7.43037698078388e-06
7.43037698075331e-06
7.43037698072546e-06
7.43037698069963e-06
7.43037698067619e-06
7.4303769806547e-06
7.43037698063567e-06
7.43037698061796e-06
7.43037698060248e-06
7.43037698058717e-06
7.43037698056155e-06
7.43037698042852e-06
7.43037697932306e-06
7.43037696948184e-06
7.43037688122794e-06
7.43037608915217e-06
7.43036897958674e-06
7.43030516428431e-06
7.42973235875134e-06
7.42459086142578e-06
1.06249547923045e-07
1.14695911859371e-08
1.14704379098039e-08
1.06270478639168e-07
7.42474883133055e-06
7.42974995635123e-06
7.43030712631014e-06
7.43036919965159e-06
7.4303761151123e-06
7.43037688552483e-06
7.4303769713252e-06
7.43037698085099e-06
7.43037698187637e-06
7.43037698195256e-06
7.43037698192094e-06
7.43037698187534e-06
7.43037698182782e-06
7.43037698177898e-06
7.43037698173041e-06
7.43037698168205e-06
7.43037698163374e-06
7.43037698158668e-06
7.43037698154036e-06
7.43037698149563e-06
7.43037698145311e-06
7.43037698141147e-06
7.43037698137253e-06
7.43037698133559e-06
7.43037698130061e-06
7.43037698126802e-06
7.430376981238e-06
7.43037698120928e-06
7.43037698118334e-06
7.43037698115935e-06
7.43037698113767e-06
7.43037698111788e-06
7.43037698110018e-06
7.43037698108413e-06
7.43037698107001e-06
7.43037698105607e-06
7.43037698103178e-06
7.43037698090001e-06
7.43037697979581e-06
7.43037696995612e-06
7.43037688170412e-06
7.43037608963021e-06
7.43036898006663e-06
7.43030516476544e-06
7.42973235923242e-06
7.42459086191521e-06
1.06249547931647e-07
1.14695911887273e-08
1.14704379099746e-08
1.06270478639496e-07
7.4247488313436e-06
7.42974995637271e-06
7.4303071263397e-06
7.43036919968467e-06
7.4303761151468e-06
7.43037688556016e-06
7.43037697136153e-06
7.43037698088862e-06
7.43037698191579e-06
7.43037698199375e-06
7.43037698196469e-06
7.43037698192174e-06
7.43037698187661e-06
7.43037698183001e-06
7.43037698178384e-06
7.43037698173771e-06
7.43037698169202e-06
7.43037698164708e-06
7.43037698160339e-06
7.43037698156099e-06
7.43037698152055e-06
7.43037698148134e-06
7.43037698144452e-06
7.43037698140958e-06
7.43037698137692e-06
7.43037698134651e-06
7.43037698131805e-06
7.43037698129142e-06
7.43037698126727e-06
7.43037698124501e-06
7.43037698122501e-06
7.43037698120698e-06
7.43037698119055e-06
7.43037698117591e-06
7.43037698116309e-06
7.43037698115041e-06
7.43037698112751e-06
7.43037698099697e-06
7.43037697989384e-06
7.43037697005534e-06
7.43037688180529e-06
7.43037608973331e-06
7.43036898017157e-06
7.43030516487138e-06
7.42973235933748e-06
7.42459086201979e-06
1.06249547933853e-07
1.14695911896697e-08
1.14704379098903e-08
1.06270478638001e-07
7.42474883122657e-06
7.42974995625971e-06
7.43030712623033e-06
7.43036919957675e-06
7.43037611503942e-06
7.4303768854533e-06
7.43037697125561e-06
7.43037698078411e-06
7.43037698181308e-06
7.4303769818931e-06
7.43037698186637e-06
7.43037698182596e-06
7.43037698178338e-06
7.43037698173927e-06
7.43037698169566e-06
7.43037698165226e-06
7.43037698160895e-06
7.43037698156647e-06
7.43037698152532e-06
7.43037698148538e-06
7.43037698144752e-06
7.43037698141051e-06
7.43037698137599e-06
7.4303769813433e-06
7.43037698131293e-06
7.43037698128462e-06
7.43037698125835e-06
7.43037698123367e-06
7.43037698121136e-06
7.43037698119097e-06
7.43037698117275e-06
7.43037698115647e-06
7.43037698114159e-06
7.4303769811285e-06
7.43037698111709e-06
7.43037698110577e-06
7.43037698108423e-06
7.43037698095503e-06
7.43037697985334e-06
7.43037697001618e-06
7.43037688176786e-06
7.43037608969829e-06
7.43036898013837e-06
7.43030516483904e-06
7.42973235930551e-06
7.42459086198792e-06
1.06249547933324e-07
1.14695911899327e-08
1.14704379097195e-08
1.06270478636051e-07
7.42474883108467e-06
7.42974995611951e-06
7.43030712609173e-06
7.43036919943906e-06
7.43037611490189e-06
7.43037688531615e-06
7.43037697111933e-06
7.43037698064919e-06
7.43037698167993e-06
7.43037698176195e-06
7.4303769817371e-06
7.43037698169909e-06
7.43037698165898e-06
7.43037698161757e-06
7.43037698157641e-06
7.4303769815354e-06
7.43037698149454e-06
7.43037698145447e-06
7.43037698141565e-06
7.43037698137808e-06
7.4303769813425e-06
7.43037698130765e-06
7.43037698127538e-06
7.4303769812448e-06
7.43037698121638e-06
7.43037698118987e-06
7.43037698116584e-06
7.43037698114309e-06
7.43037698112265e-06
7.43037698110402e-06
7.43037698108747e-06
7.43037698107264e-06
7.43037698105947e-06
7.4303769810478e-06
7.43037698103767e-06
7.4303769810276e-06
7.43037698100713e-06
7.43037698087927e-06
7.43037697977893e-06
7.43037696994321e-06
7.43037688169681e-06
7.43037608962919e-06
7.43036898007115e-06
7.43030516477284e-06
7.42973235923878e-06
7.42459086192423e-06
1.06249547932787e-07
1.1469591189973e-08
1.14704379094789e-08
1.06270478633738e-07
7.42474883091508e-06
7.42974995595212e-06
7.43030712592599e-06
7.43036919927381e-06
7.4303761147367e-06
7.43037688515133e-06
7.4303769709554e-06
7.43037698048673e-06
7.43037698151917e-06
7.43037698160322e-06
7.43037698158062e-06
7.43037698154499e-06
7.43037698150757e-06
7.43037698146857e-06
7.43037698142985e-06
7.43037698139117e-06
7.43037698135307e-06
7.43037698131547e-06
7.43037698127919e-06
7.43037698124408e-06
7.43037698121051e-06
7.43037698117834e-06
7.43037698114841e-06
7.43037698111991e-06
7.43037698109373e-06
7.43037698106933e-06
7.43037698104719e-06
7.43037698102692e-06
7.43037698100829e-06
7.4303769809915e-06
7.43037698097675e-06
7.43037698096375e-06
7.43037698095212e-06
7.43037698094187e-06
7.43037698093322e-06
7.43037698092451e-06
7.43037698090545e-06
7.43037698077881e-06
7.43037697967965e-06
7.43037696984572e-06
7.4303768816012e-06
7.43037608953554e-06
7.43036897997979e-06
7.43030516468258e-06
7.42973235914693e-06
7.42459086182656e-06
1.06249547931705e-07
1.14695911898922e-08
1.1470437909209e-08
1.06270478631455e-07
7.42474883075426e-06
7.42974995579271e-06
7.43030712576774e-06
7.43036919911582e-06
7.43037611457875e-06
7.4303768849937e-06
7.43037697079859e-06
7.43037698033149e-06
7.4303769813654e-06
7.43037698145142e-06
7.43037698143099e-06
7.43037698139761e-06
7.43037698136258e-06
7.43037698132589e-06
7.43037698128957e-06
7.43037698125323e-06
7.43037698121755e-06
7.4303769811823e-06
7.43037698114841e-06
7.43037698111577e-06
7.43037698108413e-06
7.43037698105428e-06
7.43037698102671e-06
7.43037698100004e-06
7.43037698097597e-06
7.43037698095356e-06
7.43037698093323e-06
7.43037698091498e-06
7.43037698089822e-06
7.43037698088319e-06
7.4303769808701e-06
7.43037698085866e-06
7.43037698084866e-06
7.43037698083971e-06
7.43037698083237e-06
7.43037698082492e-06
7.43037698080705e-06
7.4303769806816e-06
7.43037697958377e-06
7.43037696975137e-06
7.43037688150849e-06
7.43037608944507e-06
7.43036897989142e-06
7.43030516459538e-06
7.42973235905868e-06
7.42459086173636e-06
1.06249547930057e-07
1.14695911897806e-08
1.14704379088701e-08
1.06270478628934e-07
7.42474883057505e-06
7.42974995561506e-06
7.43030712559154e-06
7.43036919893996e-06
7.430376114403e-06
7.43037688481831e-06
7.43037697062398e-06
7.43037698015823e-06
7.43037698119388e-06
7.43037698128185e-06
7.43037698126358e-06
7.43037698123263e-06
7.43037698119965e-06
7.43037698116573e-06
7.43037698113182e-06
7.43037698109792e-06
7.43037698106474e-06
7.43037698103185e-06
7.43037698100032e-06
7.43037698097e-06
7.4303769809407e-06
7.43037698091319e-06
7.43037698088784e-06
7.43037698086336e-06
7.43037698084153e-06
7.43037698082112e-06
7.43037698080279e-06
7.43037698078635e-06
7.43037698077169e-06
7.43037698075848e-06
7.43037698074724e-06
7.43037698073732e-06
7.43037698072911e-06
7.43037698072167e-06
7.43037698071577e-06
7.43037698070965e-06
7.43037698069285e-06
7.43037698056888e-06
7.43037697947244e-06
7.4303769696417e-06
7.43037688140071e-06
7.43037608933952e-06
7.4303689797881e-06
7.43030516449347e-06
7.42973235895652e-06
7.42459086163312e-06
1.06249547928614e-07
1.1469591189618e-08
1.14704379084446e-08
1.06270478626333e-07
7.42474883039849e-06
7.42974995543716e-06
7.43030712541453e-06
7.43036919876321e-06
7.43037611422655e-06
7.43037688464218e-06
7.43037697044837e-06
7.43037697998361e-06
7.4303769810214e-06
7.43037698111101e-06
7.4303769810948e-06
7.43037698106623e-06
7.43037698103519e-06
7.43037698100389e-06
7.43037698097206e-06
7.43037698094046e-06
7.43037698090979e-06
7.43037698087893e-06
7.43037698084954e-06
7.43037698082119e-06
7.43037698079429e-06
7.43037698076886e-06
7.43037698074533e-06
7.43037698072321e-06
7.43037698070354e-06
7.43037698068487e-06
7.43037698066847e-06
7.43037698065377e-06
7.43037698064088e-06
7.43037698062946e-06
7.43037698062006e-06
7.43037698061143e-06
7.43037698060455e-06
7.43037698059896e-06
7.43037698059442e-06
7.4303769805895e-06
7.43037698057363e-06
7.4303769804507e-06
7.43037697935581e-06
7.43037696952663e-06
7.43037688128754e-06
7.43037608922849e-06
7.43036897967932e-06
7.43030516438646e-06
7.42973235884907e-06
7.4245908615276e-06
1.06249547927181e-07
1.1469591189424e-08
1.14704379077653e-08
1.06270478622989e-07
7.42474883016306e-06
7.42974995520394e-06