/*--------------------------------*- C++ -*----------------------------------*\
  =========                 |
  \\      /  F ield         | OpenFOAM: The Open Source CFD Toolbox
   \\    /   O peration     | Website:  https://openfoam.org
    \\  /    A nd           | Version:  10
     \\/     M anipulation  |
\*---------------------------------------------------------------------------*/
FoamFile
{
    format      ascii;
    class       volScalarField;
    location    "0.2";
    object      p;
}
// * * * * * * * * * * * * * * * * * * * * * * * * * * * * * * * * * * * * * //

dimensions      [1 -1 -2 0 0 0 0];

internalField   nonuniform List<scalar> 
2500
(
100013.838056582
100013.83804557
100013.8380464
100013.838048531
100013.838051674
100013.838055774
100013.83806081
100013.838066767
100013.838073619
100013.838081327
100013.838089839
100013.838099096
100013.838109032
100013.838119576
100013.838130658
100013.838142203
100013.83815414
100013.838166397
100013.838178904
100013.838191592
100013.838204396
100013.838217253
100013.838230102
100013.838242887
100013.838255554
100013.838268052
100013.838280336
100013.838292361
100013.838304088
100013.838315482
100013.838326508
100013.838337138
100013.838347346
100013.838357107
100013.838366403
100013.838375216
100013.838383532
100013.83839134
100013.838398631
100013.838405397
100013.838411633
100013.838417331
100013.83842248
100013.838427068
100013.838431075
100013.838434485
100013.838437296
100013.838439534
100013.838441481
100013.83845365
100013.836280679
100013.836277049
100013.836277943
100013.83628007
100013.836283213
100013.836287314
100013.83629235
100013.836298307
100013.836305158
100013.836312863
100013.836321373
100013.836330627
100013.836340559
100013.836351099
100013.836362175
100013.836373715
100013.836385646
100013.836397896
100013.836410395
100013.836423076
100013.836435872
100013.836448721
100013.836461561
100013.836474338
100013.836486996
100013.836499485
100013.83651176
100013.836523777
100013.836535495
100013.83654688
100013.836557898
100013.836568519
100013.836578718
100013.836588471
100013.836597759
100013.836606564
100013.836614872
100013.836622672
100013.836629955
100013.836636715
100013.836642944
100013.836648635
100013.836653779
100013.836658362
100013.836662365
100013.83666577
100013.836668576
100013.836670819
100013.83667269
100013.83667816
100013.8346625
100013.8346617
100013.834662674
100013.8346648
100013.834667942
100013.834672042
100013.834677078
100013.834683032
100013.834689879
100013.834697578
100013.83470608
100013.834715324
100013.834725243
100013.83473577
100013.834746831
100013.834758354
100013.834770267
100013.834782498
100013.834794977
100013.834807638
100013.834820413
100013.83483324
100013.834846059
100013.834858814
100013.83487145
100013.834883918
100013.83489617
100013.834908165
100013.834919862
100013.834931226
100013.834942222
100013.834952823
100013.834963002
100013.834972735
100013.834982003
100013.834990789
100013.834999079
100013.835006861
100013.835014128
100013.835020871
100013.835027084
100013.835032761
100013.835037892
100013.835042462
100013.835046453
100013.835049847
100013.835052645
100013.835054888
100013.835056683
100013.835058882
100013.833067301
100013.833067143
100013.833068151
100013.833070279
100013.833073421
100013.83307752
100013.833082553
100013.833088503
100013.833095342
100013.833103031
100013.83311152
100013.833120747
100013.833130648
100013.833141153
100013.83315219
100013.833163688
100013.833175574
100013.833187777
100013.833200227
100013.833212857
100013.833225601
100013.833238397
100013.833251185
100013.833263907
100013.833276511
100013.833288947
100013.833301168
100013.833313131
100013.833324797
100013.83333613
100013.833347096
100013.833357668
100013.833367817
100013.833377522
100013.833386763
100013.833395522
100013.833403785
100013.833411543
100013.833418784
100013.833425504
100013.833431695
100013.833437351
100013.833442462
100013.833447015
100013.833450989
100013.833454368
100013.833457153
100013.833459391
100013.833461163
100013.833462539
100013.831476014
100013.831476002
100013.831477031
100013.831479163
100013.831482305
100013.831486403
100013.831491433
100013.831497376
100013.831504205
100013.83151188
100013.83152035
100013.831529555
100013.83153943
100013.831549906
100013.831560912
100013.831572376
100013.831584226
100013.831596392
100013.831608803
100013.831621393
100013.831634097
100013.831646851
100013.831659597
100013.831672278
100013.83168484
100013.831697234
100013.831709413
100013.831721335
100013.83173296
100013.831744253
100013.83175518
100013.831765713
100013.831775825
100013.831785494
100013.831794699
100013.831803423
100013.831811653
100013.831819378
100013.831826588
100013.831833278
100013.83183944
100013.831845069
100013.831850155
100013.831854684
100013.831858636
100013.831861995
100013.831864763
100013.831866989
100013.831868744
100013.831869932
100013.829885979
100013.829886015
100013.829887062
100013.829889202
100013.829892346
100013.829896443
100013.829901468
100013.829907402
100013.829914217
100013.829921874
100013.82993032
100013.829939497
100013.82994934
100013.82995978
100013.829970747
100013.829982169
100013.829993974
100013.830006093
100013.830018457
100013.830030997
100013.83004365
100013.830056354
100013.830069048
100013.830081677
100013.830094188
100013.83010653
100013.830118659
100013.83013053
100013.830142106
100013.83015335
100013.830164229
100013.830174715
100013.830184781
100013.830194405
100013.830203566
100013.830212249
100013.830220438
100013.830228123
100013.830235295
100013.830241948
100013.830248075
100013.830253671
100013.830258725
100013.830263225
100013.83026715
100013.830270484
100013.830273231
100013.830275437
100013.830277171
100013.830278301
100013.828296811
100013.828296878
100013.828297946
100013.828300094
100013.828303242
100013.828307337
100013.828312356
100013.828318279
100013.828325077
100013.828332711
100013.828341129
100013.828350272
100013.828360076
100013.828370473
100013.828381392
100013.828392764
100013.828404516
100013.82841658
100013.828428886
100013.828441368
100013.828453961
100013.828466604
100013.828479237
100013.828491805
100013.828504254
100013.828516536
100013.828528604
100013.828540417
100013.828551933
100013.82856312
100013.828573942
100013.828584373
100013.828594385
100013.828603956
100013.828613066
100013.828621699
100013.82862984
100013.828637478
100013.828644606
100013.828651216
100013.828657302
100013.828662858
100013.828667875
100013.82867234
100013.828676233
100013.828679538
100013.828682257
100013.828684439
100013.828686146
100013.828687242
100013.826708433
100013.826708528
100013.826709617
100013.826711776
100013.826714927
100013.826719021
100013.826724032
100013.826729942
100013.82673672
100013.826744326
100013.82675271
100013.826761813
100013.826771572
100013.826781918
100013.826792783
100013.826804096
100013.826815787
100013.826827786
100013.826840026
100013.82685244
100013.826864965
100013.826877538
100013.826890101
100013.826902598
100013.826914977
100013.826927189
100013.826939188
100013.826950932
100013.826962381
100013.826973501
100013.826984259
100013.826994626
100013.827004576
100013.827014087
100013.827023138
100013.827031714
100013.8270398
100013.827047385
100013.827054461
100013.827061021
100013.82706706
100013.827072571
100013.827077545
100013.827081969
100013.827085825
100013.827089096
100013.827091785
100013.827093937
100013.827095613
100013.827096678
100013.825120814
100013.825120939
100013.825122052
100013.825124223
100013.825127377
100013.825131468
100013.825136471
100013.825142364
100013.825149118
100013.825156693
100013.825165039
100013.825174096
100013.825183803
100013.825194092
100013.825204895
100013.825216141
100013.825227762
100013.825239689
100013.825251854
100013.825264191
100013.825276637
100013.825289131
100013.825301615
100013.825314033
100013.825326332
100013.825338466
100013.825350386
100013.825362053
100013.825373426
100013.825384471
100013.825395156
100013.825405452
100013.825415332
100013.825424775
100013.82543376
100013.825442272
100013.825450296
100013.825457821
100013.82546484
100013.825471344
100013.82547733
100013.825482789
100013.825487715
100013.825492094
100013.825495908
100013.82549914
100013.825501792
100013.825503911
100013.825505551
100013.825506585
100013.823533922
100013.823534078
100013.823535214
100013.823537398
100013.823540556
100013.823544644
100013.823549636
100013.823555511
100013.823562238
100013.823569777
100013.823578079
100013.823587085
100013.823596734
100013.823606959
100013.823617692
100013.823628864
100013.823640407
100013.823652253
100013.823664334
100013.823676586
100013.823688946
100013.823701352
100013.823713747
100013.823726077
100013.823738289
100013.823750334
100013.823762168
100013.823773749
100013.823785039
100013.823796001
100013.823806605
100013.823816821
100013.823826624
100013.823835992
100013.823844905
100013.823853346
100013.823861301
100013.82386876
100013.823875715
100013.823882158
100013.823888084
100013.823893487
100013.823898359
100013.823902687
100013.823906453
100013.823909642
100013.823912255
100013.823914335
100013.823915938
100013.823916938
100013.82194773
100013.821947917
100013.821949081
100013.821951277
100013.821954439
100013.821958522
100013.821963502
100013.821969356
100013.821976052
100013.821983552
100013.821991805
100013.822000755
100013.822010339
100013.822020493
100013.822031149
100013.82204224
100013.822053697
100013.822065454
100013.822077444
100013.822089602
100013.822101866
100013.822114176
100013.822126475
100013.822138708
100013.822150823
100013.822162773
100013.822174512
100013.822186
100013.822197197
100013.822208069
100013.822218584
100013.822228714
100013.822238433
100013.822247718
100013.822256551
100013.822264915
100013.822272795
100013.822280182
100013.822287067
100013.822293442
100013.822299303
100013.822304644
100013.822309457
100013.822313729
100013.822317444
100013.822320585
100013.822323154
100013.822325193
100013.822326754
100013.822327719
100013.820362197
100013.820362419
100013.820363608
100013.820365817
100013.820368983
100013.820373061
100013.820378027
100013.820383856
100013.82039052
100013.820397976
100013.820406175
100013.820415063
100013.820424577
100013.820434653
100013.820445226
100013.820456229
100013.820467593
100013.820479253
100013.820491143
100013.8205032
100013.820515361
100013.820527567
100013.820539761
100013.820551889
100013.8205639
100013.820575746
100013.820587383
100013.820598769
100013.820609866
100013.820620641
100013.82063106
100013.820641096
100013.820650724
100013.820659921
100013.820668667
100013.820676947
100013.820684747
100013.820692056
100013.820698865
100013.820705168
100013.820710959
100013.820716232
100013.820720981
100013.820725192
100013.82072885
100013.82073194
100013.820734462
100013.820736456
100013.820737972
100013.820738899
100013.818777292
100013.818777549
100013.818778767
100013.818780989
100013.818784158
100013.818788229
100013.818793179
100013.818798983
100013.818805609
100013.818813017
100013.818821159
100013.818829979
100013.818839418
100013.818849411
100013.818859894
100013.818870801
100013.818882065
100013.818893622
100013.818905405
100013.818917353
100013.818929403
100013.818941497
100013.818953579
100013.818965595
100013.818977493
100013.818989228
100013.819000755
100013.819012033
100013.819023023
100013.819033693
100013.819044009
100013.819053945
100013.819063475
100013.819072577
100013.819081231
100013.819089422
100013.819097135
100013.81910436
100013.819111088
100013.819117313
100013.819123028
100013.81912823
100013.819132909
100013.819137055
100013.819140653
100013.819143686
100013.819146158
100013.819148104
100013.819149572
100013.819150459
100013.81719297
100013.817193264
100013.817194509
100013.817196745
100013.817199916
100013.81720398
100013.817208912
100013.817214687
100013.817221273
100013.81722863
100013.81723671
100013.817245458
100013.817254815
100013.817264719
100013.817275107
100013.817285912
100013.81729707
100013.817308516
100013.817320185
100013.817332017
100013.817343949
100013.817355925
100013.817367887
100013.817379783
100013.817391563
100013.81740318
100013.817414589
100013.817425752
100013.817436629
100013.817447187
100013.817457394
100013.817467224
100013.81747665
100013.817485651
100013.817494207
100013.817502303
100013.817509924
100013.81751706
100013.817523702
100013.817529843
100013.817535479
100013.817540604
100013.81754521
100013.817549286
100013.817552818
100013.817555793
100013.81755821
100013.817560105
100013.817561523
100013.817562368
100013.815609194
100013.815609527
100013.815610802
100013.81561305
100013.815616222
100013.815620278
100013.815625191
100013.815630935
100013.815637478
100013.81564478
100013.815652793
100013.815661465
100013.815670736
100013.815680546
100013.815690832
100013.815701529
100013.815712574
100013.815723903
100013.815735453
100013.815747162
100013.81575897
100013.815770819
100013.815782655
100013.815794425
100013.81580608
100013.815817572
100013.815828858
100013.815839898
100013.815850656
100013.815861096
100013.815871189
100013.815880906
100013.815890222
100013.815899117
100013.81590757
100013.815915565
100013.815923089
100013.815930131
100013.815936683
100013.815942737
100013.815948288
100013.815953331
100013.815957859
100013.815961862
100013.815965326
100013.815968237
100013.815970597
100013.815972439
100013.815973803
100013.815974605
100013.814025915
100013.814026287
100013.81402759
100013.814029852
100013.814033025
100013.814037071
100013.814041962
100013.814047673
100013.81405417
100013.814061414
100013.814069357
100013.814077948
100013.814087128
100013.814096839
100013.814107018
100013.814117603
100013.81412853
100013.814139736
100013.81415116
100013.81416274
100013.814174417
100013.814186135
100013.814197839
100013.814209477
100013.814221
100013.814232361
100013.814243518
100013.814254431
100013.814265063
100013.81427538
100013.814285352
100013.814294951
100013.814304153
100013.814312936
100013.814321281
100013.814329171
100013.814336594
100013.814343538
100013.814349994
100013.814355956
100013.814361418
100013.814366376
100013.814370822
100013.814374748
100013.814378139
100013.814380984
100013.814383285
100013.81438507
100013.81438638
100013.814387136
100013.812443093
100013.812443504
100013.812444839
100013.812447113
100013.812450286
100013.81245432
100013.812459188
100013.812464863
100013.812471312
100013.812478495
100013.812486365
100013.812494871
100013.812503957
100013.812513564
100013.812523632
100013.812534098
100013.812544902
100013.81255598
100013.812567272
100013.812578718
100013.81259026
100013.812601841
100013.812613407
100013.812624907
100013.812636292
100013.812647518
100013.81265854
100013.81266932
100013.812679821
100013.81269001
100013.812699856
100013.812709333
100013.812718415
100013.812727082
100013.812735314
100013.812743095
100013.812750411
100013.812757253
100013.81276361
100013.812769476
100013.812774846
100013.812779715
100013.812784076
100013.81278792
100013.812791236
100013.812794012
100013.812796249
100013.812797977
100013.812799229
100013.812799938
100013.810860674
100013.810861126
100013.81086249
100013.810864777
100013.810867948
100013.81087197
100013.810876813
100013.810882451
100013.810888849
100013.810895967
100013.810903761
100013.810912179
100013.810921166
100013.810930666
100013.810940618
100013.810950962
100013.810961638
100013.810972584
100013.81098374
100013.810995047
100013.811006447
100013.811017886
100013.81102931
100013.811040667
100013.81105191
100013.811062995
100013.811073877
100013.81108452
100013.811094885
100013.811104941
100013.811114658
100013.811124007
100013.811132966
100013.811141512
100013.811149627
100013.811157295
100013.811164502
100013.811171237
100013.811177491
100013.811183258
100013.811188532
100013.811193309
100013.811197581
100013.811201341
100013.811204578
100013.811207283
100013.811209455
100013.811211122
100013.811212315
100013.811212975
100013.809278616
100013.809279109
100013.809280503
100013.809282802
100013.809285972
100013.80928998
100013.809294797
100013.809300395
100013.809306739
100013.809313791
100013.809321506
100013.809329832
100013.809338718
100013.809348106
100013.809357939
100013.809368157
100013.809378701
100013.80938951
100013.809400525
100013.809411689
100013.809422945
100013.809434237
100013.809445513
100013.809456724
100013.809467821
100013.80947876
100013.809489499
100013.809499999
100013.809510225
100013.809520144
100013.809529726
100013.809538945
100013.809547776
100013.809556199
100013.809564193
100013.809571744
100013.809578838
100013.809585463
100013.809591612
100013.809597276
100013.809602451
100013.809607132
100013.809611312
100013.809614986
100013.809618142
100013.809620772
100013.809622877
100013.809624482
100013.809625614
100013.809626225
100013.807696862
100013.807697396
100013.80769882
100013.80770113
100013.807704297
100013.80770829
100013.807713079
100013.807718636
100013.807724925
100013.807731909
100013.807739541
100013.807747774
100013.807756554
100013.807765829
100013.807775539
100013.807785628
100013.807796036
100013.807806705
100013.807817576
100013.807828594
100013.8078397
100013.807850842
100013.807861968
100013.807873028
100013.807883975
100013.807894765
100013.807905356
100013.807915711
100013.807925794
100013.807935573
100013.807945017
100013.807954102
100013.807962802
100013.807971097
100013.807978968
100013.807986399
100013.807993377
100013.80799989
100013.80800593
100013.80801149
100013.808016563
100013.808021145
100013.808025232
100013.808028815
100013.808031888
100013.808034442
100013.808036478
100013.808038018
100013.808039088
100013.808039648
100013.806115368
100013.806115944
100013.806117398
100013.806119719
100013.806122882
100013.806126859
100013.806131619
100013.806137132
100013.806143365
100013.806150277
100013.806157826
100013.806165962
100013.806174636
100013.806183793
100013.806193378
100013.806203335
100013.806213605
100013.806224131
100013.806234855
100013.806245722
100013.806256677
100013.806267666
100013.806278638
100013.806289544
100013.806300337
100013.806310975
100013.806321416
100013.806331623
100013.806341559
100013.806351195
100013.806360499
100013.806369447
100013.806378013
100013.806386178
100013.806393923
100013.806401232
100013.806408091
100013.80641449
100013.806420418
100013.80642587
100013.80643084
100013.806435322
100013.806439311
100013.806442803
100013.80644579
100013.806448266
100013.806450232
100013.806451707
100013.806452713
100013.806453221
100013.804534076
100013.804534692
100013.804536175
100013.804538506
100013.804541665
100013.804545624
100013.804550354
100013.804555823
100013.804561997
100013.804568837
100013.8045763
100013.804584338
100013.804592903
100013.804601941
100013.804611399
100013.804621221
100013.804631351
100013.804641731
100013.804652307
100013.804663022
100013.804673822
100013.804684655
100013.804695471
100013.80470622
100013.804716858
100013.804727342
100013.80473763
100013.804747685
100013.804757474
100013.804766963
100013.804776125
100013.804784933
100013.804793364
100013.804801397
100013.804809014
100013.804816198
100013.804822937
100013.804829219
100013.804835035
100013.804840377
100013.80484524
100013.80484962
100013.804853512
100013.804856911
100013.80485981
100013.804862206
100013.8048641
100013.804865508
100013.80486645
100013.804866905
100013.802952939
100013.802953597
100013.802955109
100013.80295745
100013.802960603
100013.802964544
100013.802969242
100013.802974666
100013.80298078
100013.802987546
100013.802994921
100013.80300286
100013.803011314
100013.803020232
100013.803029561
100013.803039247
100013.803049234
100013.803059467
100013.803069892
100013.803080453
100013.803091097
100013.803101772
100013.80311243
100013.803123021
100013.803133502
100013.803143829
100013.803153962
100013.803163865
100013.803173503
100013.803182845
100013.803191863
100013.80320053
100013.803208824
100013.803216723
100013.80322421
100013.803231268
100013.803237885
100013.803244049
100013.80324975
100013.803254981
100013.803259737
100013.803264013
100013.803267805
100013.803271109
100013.80327392
100013.803276235
100013.803278056
100013.803279396
100013.803280272
100013.803280675
100013.801371899
100013.801372597
100013.801374137
100013.801376487
100013.801379634
100013.801383555
100013.80138822
100013.801393597
100013.801399651
100013.801406342
100013.801413629
100013.801421467
100013.801429809
100013.801438606
100013.801447805
100013.801457354
100013.801467198
100013.801477283
100013.801487555
100013.801497961
100013.801508447
100013.801518965
100013.801529463
100013.801539895
100013.801550217
100013.801560386
100013.801570364
100013.801580113
100013.801589599
100013.801598793
100013.801607665
100013.80161619
100013.801624345
100013.80163211
100013.801639466
100013.801646397
100013.801652891
100013.801658935
100013.801664521
100013.801669641
100013.801674288
100013.80167846
100013.801682151
100013.801685359
100013.801688081
100013.801690314
100013.801692061
100013.801693332
100013.801694143
100013.801694492
100013.799790909
100013.799791647
100013.799793215
100013.799795573
100013.799798713
100013.799802613
100013.799807245
100013.799812575
100013.799818566
100013.799825181
100013.799832379
100013.799840117
100013.799848347
100013.799857021
100013.79986609
100013.799875501
100013.799885201
100013.799895137
100013.799905257
100013.799915507
100013.799925836
100013.799936193
100013.799946532
100013.799956804
100013.799966967
100013.799976978
100013.799986799
100013.799996394
100013.800005728
100013.800014773
100013.800023499
100013.800031881
100013.800039897
100013.800047527
100013.800054751
100013.800061555
100013.800067925
100013.80007385
100013.800079319
100013.800084327
100013.800088865
100013.800092931
100013.800096521
100013.800099633
100013.800102264
100013.800104415
100013.800106087
100013.80010729
100013.800108034
100013.80010833
100013.79820991
100013.798210687
100013.798212281
100013.798214646
100013.798217778
100013.798221657
100013.798226255
100013.798231536
100013.798237465
100013.798244004
100013.798251113
100013.798258749
100013.798266866
100013.798275419
100013.798284357
100013.79829363
100013.798303186
100013.798312974
100013.798322941
100013.798333035
100013.798343207
100013.798353405
100013.798363584
100013.798373697
100013.7983837
100013.798393553
100013.798403218
100013.798412658
100013.798421841
100013.798430737
100013.798439317
100013.798447556
100013.798455433
100013.798462927
100013.79847002
100013.798476697
100013.798482943
100013.798488748
100013.798494102
100013.798498996
100013.798503426
100013.798507386
100013.798510875
100013.79851389
100013.798516431
100013.798518499
100013.798520097
100013.79852123
100013.798521908
100013.798522151
100013.796628855
100013.796629672
100013.796631292
100013.796633663
100013.796636786
100013.796640643
100013.796645205
100013.796650437
100013.796656304
100013.796662766
100013.796669786
100013.79667732
100013.796685326
100013.796693757
100013.796702565
100013.796711701
100013.796721114
100013.796730754
100013.796740568
100013.796750508
100013.796760522
100013.796770562
100013.796780582
100013.796790536
100013.796800381
100013.796810077
100013.796819585
100013.796828872
100013.796837904
100013.79684665
100013.796855085
100013.796863183
100013.796870921
100013.79687828
100013.796885242
100013.796891792
100013.796897915
100013.796903601
100013.796908838
100013.796913621
100013.796917941
100013.796921796
100013.796925184
100013.796928102
100013.796930553
100013.796932538
100013.796934061
100013.796935127
100013.796935738
100013.796935927
100013.795047687
100013.795048541
100013.795050185
100013.795052561
100013.795055674
100013.795059509
100013.795064035
100013.795069218
100013.795075021
100013.795081408
100013.795088338
100013.795095772
100013.795103666
100013.795111976
100013.795120655
100013.795129655
100013.795138926
100013.795148419
100013.795158084
100013.79516787
100013.795177728
100013.795187611
100013.795197473
100013.795207269
100013.795216957
100013.795226497
100013.795235851
100013.795244986
100013.795253867
100013.795262467
100013.795270757
100013.795278714
100013.795286315
100013.795293541
100013.795300373
100013.795306796
100013.795312797
100013.795318364
100013.795323487
100013.795328158
100013.79533237
100013.795336121
100013.795339407
100013.79534223
100013.795344591
100013.795346494
100013.795347943
100013.79534894
100013.795349486
100013.795349622
100013.793466359
100013.793467249
100013.793468918
100013.793471298
100013.7934744
100013.793478211
100013.793482701
100013.793487835
100013.793493575
100013.793499886
100013.793506728
100013.793514062
100013.793521846
100013.793530036
100013.793538588
100013.793547453
100013.793556584
100013.793565932
100013.793575448
100013.793585082
100013.793594787
100013.793604515
100013.793614221
100013.793623861
100013.793633394
100013.793642779
100013.793651981
100013.793660965
100013.793669698
100013.793678152
100013.7936863
100013.793694118
100013.793701583
100013.793708676
100013.79371538
100013.793721679
100013.793727559
100013.793733009
100013.793738018
100013.793742578
100013.793746684
100013.793750331
100013.793753518
100013.793756245
100013.793758517
100013.793760339
100013.793761716
100013.793762645
100013.793763125
100013.79376321
100013.791884816
100013.791885741
100013.791887431
100013.791889814
100013.791892905
100013.791896691
100013.791901144
100013.791906228
100013.791911907
100013.791918142
100013.791924896
100013.791932132
100013.791939807
100013.79194788
100013.791956306
100013.791965039
100013.791974033
100013.791983238
100013.791992607
100013.792002092
100013.792011645
100013.792021221
100013.792030774
100013.792040261
100013.79204964
100013.792058875
100013.792067926
100013.792076762
100013.792085349
100013.79209366
100013.792101668
100013.792109348
100013.79211668
100013.792123644
100013.792130221
100013.792136397
100013.792142158
100013.792147493
100013.79215239
100013.792156842
100013.792160842
100013.792164387
100013.792167476
100013.79217011
100013.792172294
100013.792174036
100013.79217534
100013.792176203
100013.792176619
100013.792176652
100013.790303012
100013.790303971
100013.790305682
100013.790308068
100013.790311146
100013.790314907
100013.790319323
100013.790324358
100013.790329974
100013.790336135
100013.790342803
100013.790349942
100013.79035751
100013.790365468
100013.790373771
100013.790382374
100013.790391232
100013.790400298
100013.790409523
100013.790418862
100013.790428267
100013.790437693
100013.790447095
100013.790456432
100013.790465662
100013.790474748
100013.790483652
100013.790492343
100013.790500787
100013.790508958
100013.790516828
100013.790524375
100013.790531575
100013.790538411
100013.790544865
100013.790550921
100013.790556566
100013.790561787
100013.790566574
100013.79057092
100013.790574817
100013.790578262
100013.790581254
100013.790583796
100013.790585895
100013.790587558
100013.790588792
100013.790589589
100013.790589943
100013.790589925
100013.788720895
100013.788721885
100013.788723615
100013.788726001
100013.788729066
100013.788732802
100013.788737181
100013.788742166
100013.78874772
100013.788753808
100013.788760392
100013.788767436
100013.7887749
100013.788782745
100013.788790928
100013.788799405
100013.78880813
100013.788817059
100013.788826145
100013.788835341
100013.788844601
100013.788853881
100013.788863137
100013.788872328
100013.788881412
100013.788890352
100013.788899113
100013.788907662
100013.788915967
100013.788924001
100013.788931737
100013.788939152
100013.788946226
100013.788952937
100013.78895927
100013.788965209
100013.78897074
100013.788975851
100013.788980531
100013.788984773
100013.788988569
100013.788991916
100013.788994814
100013.788997267
100013.788999282
100013.789000869
100013.789002033
100013.789002767
100013.78900306
100013.789002993
100013.787138421
100013.787139442
100013.78714119
100013.787143576
100013.787146626
100013.787150336
100013.787154677
100013.787159613
100013.787165107
100013.787171123
100013.787177625
100013.787184576
100013.787191939
100013.787199674
100013.787207739
100013.787216093
100013.78722469
100013.787233487
100013.787242436
100013.787251493
100013.787260613
100013.787269751
100013.787278865
100013.787287913
100013.787296855
100013.787305655
100013.787314276
100013.787322687
100013.787330857
100013.787338757
100013.787346363
100013.787353652
100013.787360601
100013.787367192
100013.787373407
100013.787379232
100013.787384653
100013.787389656
100013.787394233
100013.787398373
100013.787402071
100013.787405324
100013.78740813
100013.787410496
100013.787412429
100013.787413942
100013.787415041
100013.787415713
100013.787415946
100013.787415832
100013.785555541
100013.78555659
100013.785558353
100013.785560737
100013.785563772
100013.785567456
100013.785571759
100013.785576647
100013.785582082
100013.785588028
100013.785594449
100013.78560131
100013.785608574
100013.785616203
100013.785624155
100013.78563239
100013.785640863
100013.785649531
100013.785658349
100013.785667272
100013.785676255
100013.785685256
100013.785694232
100013.785703142
100013.785711947
100013.78572061
100013.785729097
100013.785737375
100013.785745413
100013.785753186
100013.785760666
100013.785767831
100013.78577466
100013.785781135
100013.785787237
100013.785792952
100013.785798265
100013.785803165
100013.785807641
100013.785811684
100013.785815288
100013.785818448
100013.785821167
100013.785823448
100013.785825303
100013.785826745
100013.785827779
100013.785828392
100013.785828569
100013.785828409
100013.783972215
100013.783973291
100013.783975068
100013.783977449
100013.783980468
100013.783984124
100013.783988391
100013.783993231
100013.783998607
100013.784004485
100013.784010828
100013.784017602
100013.784024771
100013.784032297
100013.78404014
100013.78404826
100013.784056613
100013.784065157
100013.784073848
100013.784082642
100013.784091495
100013.784100363
100013.784109206
100013.784117984
100013.784126657
100013.784135189
100013.784143545
100013.784151695
100013.784159608
100013.784167256
100013.784174615
100013.784181662
100013.784188376
100013.784194738
100013.784200731
100013.78420634
100013.784211551