/*--------------------------------*- C++ -*----------------------------------*\
  =========                 |
  \\      /  F ield         | OpenFOAM: The Open Source CFD Toolbox
   \\    /   O peration     | Website:  https://openfoam.org
    \\  /    A nd           | Version:  10
     \\/     M anipulation  |
\*---------------------------------------------------------------------------*/
FoamFile
{
    format      ascii;
    class       volScalarField;
    location    "0.2";
    object      p_rgh;
}
// * * * * * * * * * * * * * * * * * * * * * * * * * * * * * * * * * * * * * //

dimensions      [1 -1 -2 0 0 0 0];

internalField   nonuniform List<scalar> 
2500
(
13.9523636488157
13.9523900675558
13.9523917033803
13.9523938519269
13.9523969951697
13.9524010954046
13.9524061320408
13.9524120890856
13.9524189407821
13.9524266481894
13.9524351603177
13.9524444173876
13.9524543531734
13.9524648979132
13.9524759793858
13.9524875250208
13.9524994620297
13.9525117189914
13.9525242255768
13.9525369138573
13.9525497178256
13.9525625746028
13.952575423813
13.9525882087037
13.9526008753892
13.9526133739128
13.9526256573154
13.9526376826689
13.9526494100719
13.952660803523
13.9526718299749
13.9526824601053
13.9526926674298
13.9527024290146
13.9527117246762
13.9527205376071
13.9527288535901
13.9527366614784
13.9527439521917
13.9527507186722
13.952756954357
13.9527626521594
13.9527678020386
13.9527723898209
13.9527763970837
13.9527798070485
13.9527826167614
13.9527848362923
13.9527859437658
13.9527606898773
13.9534921253799
13.9535005031939
13.9535018587048
13.9535040021146
13.9535071454738
13.9535112459125
13.953516282505
13.9535222391569
13.9535290899221
13.9535367957578
13.9535453055432
13.9535545595281
13.9535644914431
13.953575031599
13.9535861078184
13.9535976476036
13.9536095782096
13.953621828332
13.9536343276122
13.9536470082821
13.9536598042905
13.9536726529041
13.9536854937178
13.9536982700811
13.9537109280936
13.9537234178861
13.9537356924848
13.9537477090489
13.953759427648
13.953770812368
13.9537818301178
13.9537924516771
13.9538026505179
13.9538124037645
13.9538216911897
13.9538304960734
13.9538388041692
13.9538466043887
13.9538538876659
13.9538606470451
13.9538668760215
13.9538725676248
13.9538777118578
13.9538822945324
13.9538862969348
13.9538897019956
13.9538925077941
13.9538947366673
13.9538961632934
13.9538873756101
13.9542400512437
13.9542417375924
13.9542428444693
13.9542449765431
13.9542481188255
13.9542522187548
13.9542572542268
13.9542632084485
13.9542700550228
13.954277754674
13.954286256223
13.9542954999779
13.9543054198002
13.9543159461464
13.9543270070135
13.9543385301222
13.954350442873
13.9543626741506
13.9543751537713
13.954387814083
13.9544005891948
13.9544134164898
13.9544262356503
13.9544389901857
13.9544516262395
13.954464094073
13.9544763467566
13.9544883415656
13.9545000385842
13.9545114020002
13.9545223987516
13.9545329996618
13.9545431782317
13.954552911644
13.9545621797006
13.9545709656959
13.9545792554127
13.9545870378352
13.9545943039411
13.9546010468766
13.9546072602388
13.9546129372175
13.9546180679317
13.9546226381499
13.9546266289253
13.9546300230722
13.9546328207944
13.9546350609016
13.9546367546427
13.9546357023792
13.9549349822773
13.9549352712784
13.9549363091064
13.9549384384009
13.9549415803194
13.9549456793902
13.954950712563
13.9549566622882
13.9549635015574
13.9549711909203
13.9549796791398
13.9549889066548
13.9549988075451
13.9550093125581
13.9550203499384
13.9550318477268
13.955043733542
13.9550559365598
13.9550683868001
13.955081016873
13.9550937610329
13.9551065568667
13.9551193442312
13.955132066767
13.9551446707628
13.9551571065967
13.9551693274698
13.9551812907303
13.9551929565787
13.955204289261
13.9552152558026
13.9552258270851
13.9552359766531
13.9552456817473
13.9552549221989
13.955263681346
13.9552719450003
13.9552797022188
13.9552869440085
13.9552936636319
13.9552998548024
13.9553055108554
13.9553106220264
13.9553151741857
13.9553191482701
13.9553225271229
13.9553253124323
13.9553275499929
13.9553293033241
13.9553300649568
13.9556233174953
13.955623379341
13.9556244140695
13.955626546609
13.955629689357
13.9556337873364
13.9556388170313
13.9556447600771
13.9556515889126
13.955659263811
13.9556677336077
13.9556769389455
13.9556868141808
13.9556972904538
13.9557082963729
13.9557197603426
13.9557316103455
13.9557437758776
13.9557561872643
13.9557687773922
13.9557814807922
13.9557942352694
13.9558069808845
13.9558196614962
13.9558322235389
13.9558446175652
13.9558567969216
13.9558687190874
13.9558803443651
13.9558916371316
13.9559025644558
13.9559130973357
13.9559232093452
13.9559328778269
13.9559420825972
13.9559508071106
13.9559590371791
13.9559667619033
13.9559739723773
13.9559806619509
13.9559868244251
13.955992453295
13.9559975389857
13.9560020674835
13.9560060197837
13.9560093787441
13.9560121468821
13.9560143726412
13.9560161244299
13.956017206292
13.9563114521734
13.9563114995835
13.9563125480345
13.9563146875735
13.9563178323879
13.9563219291304
13.956326954125
13.956332888265
13.9563397034217
13.9563473597082
13.9563558060036
13.9563649832417
13.9563748262008
13.9563852664432
13.9563962330576
13.956407654885
13.9564194603736
13.9564315793978
13.9564439426467
13.9564564833854
13.9564691364212
13.9564818398794
13.9564945340535
13.956507163035
13.9565196734911
13.9565320161782
13.9565441445739
13.9565560163319
13.9565675919002
13.9565788357722
13.9565897151188
13.9566002010397
13.9566102671815
13.9566198909451
13.9566290522198
13.956637734489
13.9566459236376
13.9566536088096
13.9566607811284
13.9566674340458
13.9566735614499
13.9566791570396
13.9566842113709
13.956688710663
13.9566926360276
13.9566959703952
13.9566987165599
13.9567009232269
13.9567026562581
13.956703768592
13.9570002533146
13.9570003216795
13.9570013900666
13.9570035386714
13.957006686338
13.9570107815962
13.9570158005663
13.9570217234868
13.9570285216905
13.9570361551159
13.9570445728023
13.9570537160616
13.9570635201089
13.9570739170886
13.9570848365984
13.9570962080616
13.957107960392
13.957120023988
13.9571323299606
13.9571448119532
13.9571574051806
13.9571700480737
13.9571826812607
13.9571952490805
13.9572076984623
13.9572199803806
13.9572320485167
13.9572438607283
13.9572553775943
13.9572665637388
13.9572773865075
13.9572878170584
13.9572978291544
13.9573074002546
13.9573165103357
13.9573251429247
13.9573332839354
13.957340922585
13.9573480500258
13.9573546597821
13.9573607458733
13.9573663021001
13.9573713192513
13.9573757837934
13.9573796770419
13.9573829820147
13.9573857014329
13.9573878834926
13.9573895900685
13.9573906833102
13.9576898163941
13.9576899116364
13.9576910009782
13.9576931602642
13.9576963114669
13.9577004048188
13.9577054163674
13.9577113256673
13.9577181035711
13.9577257099154
13.957734093914
13.9577431973303
13.9577529559465
13.9577633025183
13.9577741672983
13.9577854803065
13.9577971710678
13.9578091705043
13.9578214102512
13.9578338244028
13.9578463485959
13.9578589216544
13.9578714845265
13.9578839819151
13.9578963609965
13.9579085729929
13.9579205718474
13.9579323155922
13.95794376501
13.9579548848997
13.957965642694
13.9579760097258
13.9579859598307
13.9579954705841
13.9580045220064
13.9580130976683
13.958021183571
13.9580287689314
13.9580358449748
13.9580424052547
13.9580484439066
13.9580539548624
13.9580589291436
13.9580633534933
13.9580672095035
13.9580704803666
13.9580731685419
13.9580753207993
13.9580769966124
13.9580780614488
13.958380135693
13.9583802601846
13.9583813732606
13.9583835440571
13.9583866989706
13.9583907898341
13.9583957924333
13.9584016856534
13.9584084398812
13.9584160148806
13.9584243601275
13.9584334178799
13.9584431246039
13.9584534137248
13.9584642162517
13.9584754628595
13.9584870837571
13.9584990104777
13.9585111752094
13.9585235125996
13.9585359587218
13.9585484528361
13.9585609362985
13.9585733541462
13.9585856538761
13.9585977870156
13.9586097077408
13.9586213743314
13.9586327477446
13.9586437929829
13.9586544776394
13.9586647731776
13.9586746535497
13.9586840964039
13.9586930818623
13.9587015935685
13.9587096175092
13.9587171429885
13.9587241612317
13.958730665865
13.9587366510823
13.9587421109463
13.9587470367405
13.9587514155137
13.958755229236
13.9587584613182
13.9587611138413
13.9587632322946
13.9587648729357
13.9587659069075
13.9590711811325
13.9590713362995
13.9590724731097
13.9590746563335
13.9590778150887
13.9590819027071
13.9590868947416
13.9590927693789
13.9590994965547
13.9591070359893
13.9591153375222
13.9591243439645
13.9591339924955
13.9591442173405
13.9591549502948
13.9591661228333
13.9591776658635
13.9591895116027
13.9592015928793
13.9592138448934
13.9592262042424
13.9592386106815
13.9592510059592
13.9592633355205
13.9592755472258
13.9592875928938
13.959299427006
13.9593110080605
13.9593222972762
13.9593332598306
13.9593438634911
13.9593540798669
13.9593638830556
13.9593732508074
13.9593821633025
13.9593906042428
13.9593985596875
13.9594060189411
13.9594129732577
13.9594194162928
13.9594253422838
13.9594307454681
13.9594356173475
13.959439945349
13.959443711894
13.9594469006843
13.9594495135534
13.9594515939534
13.9594531964103
13.9594541968254
13.9597629253403
13.9597631132056
13.9597642763547
13.9597664722969
13.9597696346173
13.9597737180447
13.9597786977974
13.9597845513053
13.9597912480822
13.9597987478191
13.9598070007341
13.9598159503075
13.959825534519
13.9598356884526
13.9598463447619
13.9598574357515
13.9598688931583
13.9598806499125
13.9598926395411
13.9599047978409
13.9599170620058
13.9599293722713
13.9599416709098
13.9599539037299
13.9599660189997
13.959977968887
13.9599897081353
13.9600011955772
13.9600123926502
13.9600232647354
13.9600337798038
13.9600439096248
13.960053628427
13.9600629140623
13.9600717468129
13.9600801104389
13.9600879910431
13.9600953779154
13.9601022623538
13.9601086380135
13.9601144991902
13.9601198402379
13.9601246529201
13.9601289250713
13.960132639666
13.9601357808278
13.9601383500558
13.960140389172
13.9601419495593
13.9601429146569
13.9604553297395
13.9604555516125
13.9604567407368
13.9604589499213
13.9604621155595
13.9604661937919
13.9604711594875
13.960476989334
13.9604836524086
13.9604911084025
13.9604993080284
13.9605081954214
13.9605177094636
13.960527786141
13.9605383590533
13.9605493614363
13.9605607258418
13.960572386015
13.9605842762248
13.9605963329377
13.9606084939296
13.9606207000325
13.9606328939844
13.9606450220745
13.9606570329488
13.9606688791682
13.960680515811
13.9606919019716
13.9607029993786
13.9607137736311
13.9607241929189
13.9607342291711
13.9607438567618
13.9607530536741
13.9607618002774
13.9607700803754
13.9607778801146
13.9607851887995
13.9607919977134
13.9607983005117
13.9608040915482
13.9608093652787
13.9608141137578
13.9608183252421
13.9608219833462
13.960825072747
13.9608275947539
13.9608295888465
13.9608311047341
13.9608320317639
13.9611483616318
13.9611486193462
13.9611498368613
13.9611520592443
13.9611552275892
13.9611592994625
13.9611642492964
13.961170052964
13.9611766790913
13.9611840874568
13.9611922292388
13.9612010493584
13.961210487585
13.9612204809382
13.9612309640215
13.9612418710167
13.9612531353923
13.9612646917521
13.9612764751364
13.9612884227245
13.9613004729617
13.9613125672331
13.9613246488443
13.9613366645499
13.9613485634618
13.9613602984755
13.9613718250912
13.9613831026654
13.9613940932322
13.9614047626237
13.9614150792622
13.9614250152372
13.9614345451118
13.9614436469565
13.9614523012715
13.9614604918897
13.961468205016
13.96147542994
13.9614821579307
13.9614883826289
13.9614940984029
13.9614992998395
13.9615039792698
13.9615081254597
13.9615117227368
13.9615147564182
13.9615172276099
13.9615191740013
13.9615206418239
13.9615215291851
13.9618419767212
13.961842271252
13.9618435164157
13.9618457522447
13.961848922816
13.9618529871368
13.9618579192756
13.9618636942905
13.9618702803709
13.9618776374118
13.9618857170572
13.9618944650865
13.961903822259
13.9619137266272
13.9619241138716
13.9619349191635
13.9619460769754
13.9619575227844
13.9619691924599
13.9619810239237
13.9619929563341
13.9620049316873
13.9620168938418
13.9620287900761
13.9620405699679
13.9620521868055
13.962063596482
13.9620747586741
13.9620856357215
13.962096193718
13.9621064013045
13.962116230774
13.9621256568644
13.9621346577769
13.9621432140848
13.9621513097081
13.9621589308517
13.9621660668199
13.9621727088524
13.9621788505465
13.962184486285
13.9621896107856
13.9621942166414
13.9621982932003
13.9622018255905
13.962204799871
13.9622072170896
13.9622091123747
13.9622105301678
13.9622113752994
13.962536137944
13.9625364707899
13.9625377457851
13.9625399947545
13.9625431667228
13.9625472222251
13.9625521348353
13.9625578787964
13.9625644218613
13.9625717240124
13.9625797374756
13.9625884088746
13.9625976800307
13.962607490088
13.9626177758182
13.9626284734986
13.962639518606
13.9626508475485
13.9626623970544
13.9626741058455
13.9626859137934
13.9626977635489
13.962709599582
13.9627213696949
13.9627330239309
13.962744516044
13.9627558022912
13.9627668427274
13.9627775999688
13.962788040415
13.9627981329395
13.9628078500391
13.9628171666409
13.962826061048
13.962834513979
13.9628425093833
13.9628500334948
13.9628570756031
13.9628636269044
13.9628696809523
13.9628752321441
13.9628802752995
13.9628848033171
13.962888806127
13.9628922697739
13.962895181161
13.9628975412197
13.962899383172
13.9629007477051
13.9629015492974
13.9632307962747
13.9632311680325
13.9632324717095
13.9632347338484
13.9632379065733
13.9632419520203
13.9632468433265
13.9632525539346
13.963259051161
13.9632662951335
13.9632742386457
13.963282829267
13.963292009852
13.9633017207234
13.9633118998172
13.963322484502
13.9633334113169
13.9633446176449
13.9633560411166
13.9633676212688
13.9633792987443
13.9633910168632
13.9634027207212
13.9634143586445
13.9634258812293
13.9634372426517
13.9634483995906
13.9634593124501
13.9634699441958
13.9634802614892
13.9634902334801
13.9634998328693
13.9635090347583
13.963517817625
13.9635261622607
13.963534052702
13.9635414751683
13.9635484189348
13.9635548751539
13.9635608373355
13.963566299848
13.9635712575982
13.9635757038632
13.9635796291841
13.963583020537
13.9635858658148
13.963588166007
13.9635899515852
13.9635912613448
13.9635920170986
13.9639259110554
13.9639263229037
13.963927657227
13.9639299319824
13.9639331045473
13.9639371386147
13.9639420068561
13.9639476819139
13.9639541306678
13.9639613133768
13.96396918346
13.9639776894328
13.9639867752558
13.9639963824593
13.9640064501727
13.9640169169143
13.9640277203143
13.9640387987456
13.964050090799
13.9640615368553
13.9640730783285
13.964084659252
13.9640962253325
13.9641077255365
13.9641191109113
13.9641303361568
13.9641413583595
13.9641521382873
13.9641626392695
13.964172828244
13.964182674652
13.9641921513976
13.9642012337863
13.9642099004413
13.9642181322561
13.9642259132961
13.9642332298536
13.9642400711309
13.9642464282369
13.9642522945942
13.9642576645856
13.9642625331908
13.964266894036
13.9642707383464
13.9642740541167
13.964276830302
13.9642790678627
13.9642807952769
13.9642820473528
13.9642827563221
13.9646214295499
13.9646218816779
13.9646232451632
13.9646255324333
13.964628704096
13.9646327255323
13.9646375690791
13.9646432065347
13.9646496043715
13.9646567229938
13.964664516534
13.9646729343949
13.9646819217451
13.9646914213081
13.9647013734502
13.9647117178829
13.964722393328
13.964733339235
13.9647444951261
13.9647558022698
13.9647672028805
13.9647786417045
13.9647900651325
13.9648014226841
13.9648126660031
13.9648237502261
13.964834632905
13.9648452751862
13.9648556407483
13.9648656968639
13.9648754132068
13.9648847629578
13.964893721597
13.9649022678932
13.964910382856
13.964918050624
13.9649252574745
13.9649319925811
13.9649382469943
13.9649440140347
13.9649492880708
13.964954064184
13.9649583363498
13.9649620965065
13.9649653337547
13.9649680381553
13.9649702108291
13.9649718774162
13.9649730707606
13.9649737309373
13.9653173083498
13.965317801616
13.9653191959515
13.9653214950231
13.9653246647795
13.9653286723333
13.9653334895702
13.9653390874882
13.9653454321524
13.9653524841706
13.9653601982864
13.9653685249359
13.9653774104663
13.9653867988382
13.9653966316691
13.9654068498785
13.9654173933523
13.9654282025876
13.9654392180964
13.9654503820202
13.9654616374173
13.9654729297763
13.9654842061573
13.9654954167054
13.9655065135885
13.9655174524669
13.9655281913292
13.9655386917293
13.9655489177239
13.9655588368623
13.965568419153
13.965577637995
13.9655864690576
13.9655948912696
13.9656028857717
13.9656104367459
13.9656175304699
13.9656241560879
13.9656303045485
13.9656359690998
13.965641144081
13.9656458246609
13.9656500051788
13.9656536783295
13.9656568343635
13.9656594645203
13.9656615700369
13.9656631744583
13.96566430651
13.965664917283
13.966013491925
13.9660140261549
13.9660154495796
13.9660177601909
13.9660209272843
13.9660249197623
13.966029709205
13.9660352658393
13.9660415553371
13.9660485384811
13.9660561707278
13.966064403503
13.9660731843469
13.9660824585008
13.9660921688628
13.9661022575747
13.9661126656865
13.9661233347579
13.9661342063191
13.9661452234432
13.9661563299887
13.9661674722011
13.9661785978533
13.9661896577018
13.9662006044964
13.9662113943923
13.9662219858292
13.9662323407829
13.9662424236885
13.9662522024155
13.9662616472633
13.9662707318639
13.9662794321193
13.9662877271185
13.9662955980893
13.9663030292868
13.9663100070029
13.9663165202946
13.966322560038
13.966328119408
13.9663331926713
13.9663377751131
13.9663418614364
13.966345445122
13.9663485176134
13.9663510714308
13.9663531080005
13.9663546480297
13.9663557181775
13.9663562778733
13.966709934859
13.9667105105909
13.9667119645455
13.966714285838
13.9667174492643
13.9667214254878
13.9667261857248
13.9667316994455
13.9667379319726
13.9667448442779
13.9667523924873
13.9667605290742
13.966769202787
13.9667783601471
13.9667879453336
13.9667979017395
13.9668081715936
13.9668186975614
13.9668294221628
13.9668402893876
13.9668512439821
13.9668622329336
13.966873204743
13.9668841107487
13.9668949043262
13.9669055421109
13.9669159830373
13.9669261895178
13.9669361263077
13.9669457616692
13.9669550661638
13.9669640136999
13.9669725803687
13.9669807454338
13.9669884902542
13.9669957990991
13.9670026582899
13.9670090568106
13.9670149854646
13.967020437296
13.9670254065277
13.9670298885467
13.9670338784344
13.9670373704867
13.9670403573982
13.9670428329846
13.967044798861
13.9670462736249
13.9670472797443
13.9670477880718
13.9674065797299
13.9674071964837
13.9674086789455
13.9674110105698
13.9674141695286
13.9674181284063
13.9674228581716
13.9674283275672
13.967434501581
13.9674413413741
13.9674488037999
13.9674568423507
13.9674654069822
13.9674744455115
13.9674839034269
13.9674937253585
13.9675038547284
13.9675142352935
13.9675248106068
13.967535525604
13.9675463258463
13.967557159136
13.9675679746579
13.9675787244196
13.9675893623498
13.9675998456369
13.9676101336663
13.9676201892871
13.9676299776474
13.9676394673297
13.9676486292301
13.9676574374898
13.9676658684184
13.9676739014394
13.9676815180428
13.9676887025271
13.967695441228
13.967701723057
13.9677075387299
13.9677128811454
13.9677177445119
13.9677221242891
13.967726015966
13.9677294146531
13.967732314326
13.9677347101679
13.9677366041142
13.9677380118374
13.9677389537392
13.9677394093887
13.968103379957
13.9681040379219
13.9681055500696
13.9681078910362
13.9681110445235
13.9681149849639
13.9681196830788
13.9681251068978
13.968131221045
13.9681379869435
13.9681453621452
13.9681533011608
13.9681617551832
13.9681706733099
13.96818000231
13.9681896880938
13.9681996752624
13.968209908664
13.9682203329139
13.9682308938354
13.9682415379066
13.9682522136864
13.9682628710725
13.9682734627131
13.9682839431334
13.9682942700601
13.9683044033445
13.9683143062721
13.9683239443984
13.9683332866261
13.9683423041715
13.9683509714087
13.9683592649089
13.9683671642415
13.9683746509836
13.9683817095502
13.9683883261896
13.9683944898134
13.9684001909918
13.9684054225218
13.9684101785242
13.9684144545899
13.9684182465862
13.9684215504676
13.9684243615484
13.9684266763943
13.9684284971881
13.9684298375214
13.9684307135321
13.9684311165474
13.9688002770999
13.96880097549
13.9688025150826
13.9688048649259
13.9688080121559
13.968811933184
13.9688165985863
13.9688219757518
13.9688280289702
13.9688347199262
13.9688420068705
13.9688498453179
13.9688581876981
13.968866984389
13.968876183455
13.9688857320289
13.9688955759193
13.9689056611096
13.9689159331901
13.9689263389446
13.9689368257241
13.9689473428589
13.9689578409598
13.9689682733442
13.9689785951341
13.9689887645363
13.9689987419551
13.9690084910544
13.9690179777972
13.9690271714644
13.9690360435343
13.9690445686865
13.9690527236962
13.9690604882926
13.9690678441693
13.9690747757704
13.969081269388
13.9690873138024
13.9690928994969
13.9690980191517
13.9691026668152
13.9691068381653
13.9691105294769
13.969113737563
13.9691164591059
13.9691186920973
13.9691204390692
13.9691217107029
13.9691225211427
13.9691228705487
13.969497224025
13.9694979626802
13.9694995306199
13.969501888263
13.9695050282317
13.9695089288871
13.9695135606162
13.9695188901969
13.969524881657
13.9695314968703
13.9695386948151
13.9695464320539
13.969554662166
13.9695633368101
13.9695724053599
13.9695818161854
13.9695915162592
13.9696014526562
13.969611572029
13.9696218220633
13.9696321509837
13.9696425088914
13.9696528471395
13.9696631196857
13.9696732822194
13.9696832935151
13.9696931144426
13.969702709117
13.9697120438941
13.9697210883896
13.9697298144019
13.9697381968726
13.9697462128097
13.9697538420733
13.9697610665171
13.9697678705998
13.9697742405988
13.9697801652364
13.9697856348648
13.9697906420333
13.969795180732
13.9697992467118
13.9698028366838
13.9698059483344
13.9698085796845
13.9698107302102
13.9698124027345
13.9698136058723
13.9698143495043
13.9698146457376
13.9701941622043
13.9701949400333
13.9701965338754
13.9701988987508
13.9702020306722
13.9702059100673
13.9702105073229
13.9702157885913
13.9702217176819
13.9702282567159
13.9702353653411
13.9702430011239
13.9702511188516
13.9702596714342
13.9702686094824
13.9702778826031
13.9702874389623
13.9702972266969
13.9703071934782
13.9703172879381
13.9703274591302
13.9703376579564
13.9703478364827
13.9703579492925
13.9703679527011
13.9703778060066
13.9703874705447
13.9703969108814
13.9704060937656
13.9704149891622
13.9704235691897
13.9704318090371
13.9704396859306
13.9704471799196
13.9704542729305
13.9704609494947
13.9704671958898
13.970473000707
13.9704783542111
13.9704832487914
13.9704876783944
13.9704916388582
13.9704951273015
13.9704981422983
13.9705006832519
13.9705027511081
13.9705043491413
13.9705054830119
13.9705061606655
13.9705064031441
13.9708910446643
13.9708918612014
13.9708934815571
13.970895852457
13.9708989753271
13.9709028326179
13.9709073946433
13.9709126270463
13.9709184933745
13.970924956011
13.9709319753019
13.9709395097889
13.9709475153941
13.970955946279
13.9709647543059
13.9709738902748
13.9709833035013
13.9709929431992
13.9710027580295
13.9710126975697
13.9710227117175
13.9710327521461
13.97104277162
13.9710527253774
13.9710625703301
13.9710722662712
13.9710817750602
13.971091061685
13.9711000932875
13.9711088401673
13.9711172747629
13.9711253725254
13.9711331109138
13.9711404701084
13.9711474321666
13.9711539816635
13.9711601048475
13.9711657902226
13.9711710279371
13.9711758102494
13.9711801310041
13.9711839861557
13.9711873732449
13.9711902917043
13.9711927423632
13.9711947276519
13.9711962511647
13.971197316554
13.9711979275016
13.9711981170112
13.9715878136631
13.9715886674967
13.9715903117612
13.9715926879871
13.9715958010347
13.9715996354498
13.9716041616339
13.9716093447787
13.971615148228
13.9716215345979
13.9716284649039
13.9716358986625
13.9716437929019
13.9716521030059
13.9716607820446
13.9716697819822
13.9716790532839
13.9716885462112
13.9716982104292
13.9717079963884
13.9717178548599
13.9717277382442
13.9717376000481
13.9717473961064
13.9717570839421
13.9717666238721
13.9717759782361
13.9717851124296
13.9717939940019
13.9718025936163
13.9718108840025
13.9718188408733
13.9718264418771
13.9718336673832
13.9718404995656
13.9718469230138
13.9718529239326
13.9718584907969
13.9718636135949
13.971868284425
13.9718724971026
13.9718762476405
13.9718795340013
13.9718823565345
13.9718847174372
13.9718866206676
13.9718880702567
13.971889066961
13.9718896125705
13.9718897489511
13.9722844230855
13.9722853134299
13.9722869818652
13.9722893621511
13.972292464372
13.9722962751403
13.9723007649736
13.9723058986128
13.9723116392124
13.9723179496796
13.97232479167
13.9723321256024
13.9723399096256
13.9723481002584
13.9723566517641
13.9723655172711
13.9723746483214
13.9723839962389
13.9723935116344
13.9724031458754
13.9724128505331
13.972422578765
13.972432284776
13.9724419250415
13.9724514576228
13.9724608434044
13.9724700451625
13.9724790287437
13.9724877620756
13.9724962161563
13.9725043640356
13.9725121816446
13.9725196468935
13.9725267402828
13.9725334440736
13.9725397429138
13.9725456229935
13.9725510726566
13.9725560817751
13.9725606423453
13.9725647480664
13.9725683950528
13.972571581704
13.9725743092422
13.9725765812764
13.9725784032635
13.9725797795691
13.9725807089562
13.972581189053
13.9725812734832
13.9729808168486
13.9729817420011
13.9729834318568
13.9729858153732
13.9729889059672
13.9729926924338
13.9729971454944
13.9730022295553
13.9730079076398
13.973014142859
13.9730208975379
13.9730281329539
13.973035808347
13.9730438813131
13.973052307294
13.9730610405095
13.9730700336077
13.9730792388727
13.9730886078905
13.9730980928871
13.9731076462485
13.9731172218744
13.9731267746538
13.9731362616585
13.9731456415466
13.9731548756681
13.9731639273232
13.9731727627368
13.9731813502585
13.9731896611775
13.9731976688636
13.9732053494954
13.9732126811869
13.9732196445839
13.9732262220787
13.9732323983189
13.9732381594658
13.9732434937905
13.9732483910338
13.9732528430322
13.9732568434119
13.973260388404
13.9732634768152
13.9732661107701
13.9732682952745
13.9732700372406
13.9732713415142
13.9732722040353
13.9732726205111
13.9732726532675
13.9736769503652
13.9736779092345
13.9736796204234
13.973682005817
13.973685083809
13.9736888452899
13.9736932612432
13.9736982957984
13.973703911819
13.973710072707
13.9737167413405
13.9737238798989
13.9737314485683
13.9737394060794
13.973747708922
13.9737563124363
13.9737651702599
13.9737742356956
13.9737834612461
13.9737927999522
13.9738022050151
13.9738116310618
13.9738210336363
13.9738303704216
13.9738396006287
13.9738486861315
13.9738575906522
13.9738662808522
13.9738747254451
13.9738828960544
13.9738907663268
13.9738983127172
13.9739055134996
13.9739123495092
13.9739188032108
13.9739248592523
13.9739305038238
13.9739357250655
13.9739405125729
13.9739448580658
13.9739487551124
13.9739522000309
13.9739551920648
13.9739577341825
13.973959832816
13.9739614963473
13.9739627299277
13.9739635275473
13.9739638808533
13.9739638635219
13.9743727700406
13.9743737606477
13.9743754903466
13.9743778766715
13.9743809412466
13.9743846771744
13.9743890558166
13.9743940410699
13.9743995957397
13.9744056834606
13.974412267693
13.9744193113729
13.9744267756905
13.9744346203806
13.9744428029953
13.9744512798788
13.9744600057165
13.974468934699
13.9744780202454
13.9744872162264
13.9744964765996
13.9745057567052
13.9745150127274
13.9745242029458
13.9745332871244
13.9745422276028
13.9745509885979
13.9745595371351
13.9745678422914
13.9745758760255
13.9745836122747
13.9745910277124
13.9745981008309
13.9746048125817
13.974611145517
13.9746170843428
13.9746226151619
13.974627726071
13.97463240652
13.9746366480831
13.9746404442703
13.9746437915019
13.9746466894576
13.9746491419792
13.9746511568519
13.9746527439129
13.9746539087791
13.9746546426322
13.9746549351839
13.9746548685362
13.9750682335434
13.9750692544912
13.9750710022927
13.9750733881083
13.9750764383061
13.9750801480986
13.9750844892696
13.9750894255849
13.9750949197769
13.9751009357133
13.975107437378
13.9751143885078
13.9751217511512
13.9751294860034
13.9751375516498
13.975145905395
13.9751545028557
13.9751632991974
13.9751722486399
13.9751813058683
13.9751904255972
13.9751995638362
13.9752086774097
13.9752177251794
13.9752266674332
13.9752354669763
13.9752440884622
13.9752524993382
13.9752606690308
13.9752685697749
13.9752761758136
13.975283464024
13.9752904131165
13.9752970041445
13.9753032197768
13.9753090447048
13.9753144650458
13.9753194687364
13.9753240451391
13.975328185712
13.9753318838921
13.9753351362015
13.9753379427275
13.9753403082286
13.9753422418144
13.9753437547624
13.9753448529518
13.9753455256287
13.9753457585757
13.9753456445906
13.9757632905821
13.9757643396879
13.9757661026815
13.9757684869692
13.9757715220039
13.9757752051955
13.9757795088517
13.9757843967236
13.9757898315002
13.9757957772963
13.9758021986054
13.9758090598043
13.9758163238293
13.9758239522635
13.9758319046232
13.9758401391591
13.9758486124338
13.9758572803985
13.9758660981752
13.9758750211913
13.9758840048598
13.9758930058742
13.9759019816702
13.9759108916478
13.9759196966188
13.9759283598687
13.9759368464729
13.9759451242426
13.9759531629534
13.9759609351458
13.975968415325
13.9759755805862
13.9759824098001
13.97598888418
13.9759949864383
13.9760007013247
13.9760060148692
13.9760109149502
13.9760153908137
13.9760194337723
13.976023037234
13.9760261978226
13.9760289160768
13.9760311975842
13.9760330527934
13.9760344943788
13.9760355285835
13.9760361419176
13.9760363182286
13.9760361581866
13.976457901721
13.9764589773258
13.9764607547986
13.9764631361177
13.9764661550435
13.9764698111539
13.976474077368
13.9764789174078
13.9764842940203
13.9764901715098
13.9764965148206
13.9765032889991
13.9765104577382
13.9765179834649
13.9765258265834
13.9765339462174
13.9765422997734
13.9765508440614
13.97655953496
13.9765683286532
13.9765771812527
13.9765860500629
13.9765948931308
13.976603670395
13.9766123431764
13.9766208751826
13.9766292319255
13.976637381551
13.976645294184
13.9766529426561
13.9766603017197
13.9766673486738
13.9766740625782
13.9766804247338
13.9766864179546
13.9766920269612
13.9766972377984