/*--------------------------------*- C++ -*----------------------------------*\
  =========                 |
  \\      /  F ield         | OpenFOAM: The Open Source CFD Toolbox
   \\    /   O peration     | Website:  https://openfoam.org
    \\  /    A nd           | Version:  10
     \\/     M anipulation  |
\*---------------------------------------------------------------------------*/
FoamFile
{
    format      ascii;
    class       surfaceScalarField;
    location    "0.2";
    object      phi;
}
// * * * * * * * * * * * * * * * * * * * * * * * * * * * * * * * * * * * * * //

dimensions      [1 0 -1 0 0 0 0];

internalField   nonuniform List<scalar> 
4900
(
-4.28309934541865e-15
-5.6380129194886e-14
-1.92541725868684e-14
-5.4036372423727e-14
-3.83731007499053e-14
-5.2276051529673e-14
-5.64614646692263e-14
-5.20543926070725e-14
-7.36577287921277e-14
-5.20547715763773e-14
-9.04795795026654e-14
-5.20658476431858e-14
-1.07014403812761e-13
-5.20639519744219e-14
-1.23085879492255e-13
-5.20414091514786e-14
-1.38458365273279e-13
-5.19879182014079e-14
-1.52914583693613e-13
-5.18968316738139e-14
-1.66297056127965e-13
-5.17621079005201e-14
-1.78489737739205e-13
-5.15834925642591e-14
-1.8942898916453e-13
-5.13600351984761e-14
-1.99071260770339e-13
-5.10957482564196e-14
-2.07409492032986e-13
-5.07919718981001e-14
-2.14440269476425e-13
-5.04543633811341e-14
-2.2018808533294e-13
-5.00846415458147e-14
-2.24672215307977e-13
-4.9688705040335e-14
-2.27936376843212e-13
-4.92678737680508e-14
-2.30014487125968e-13
-4.88277727572599e-14
-2.30963394459973e-13
-4.83691735812904e-14
-2.30827303130382e-13
-4.78973239638653e-14
-2.29672018130259e-13
-4.74125335003155e-14
-2.27548447246351e-13
-4.69196936185195e-14
-2.24527421168841e-13
-4.64187747956612e-14
-2.20663022402571e-13
-4.59143309045786e-14
-2.16027399179531e-13
-4.54060757970088e-14
-2.10674747333841e-13
-4.48982020807964e-14
-2.04675683327044e-13
-4.43901939624169e-14
-1.98082602199285e-13
-4.38858221941134e-14
-1.90963172540167e-13
-4.33843373114188e-14
-1.83367550688787e-13
-4.28890354726852e-14
-1.75360415471075e-13
-4.23989658894781e-14
-1.66990125743631e-13
-4.19169972330604e-14
-1.5831840688318e-13
-4.14421630742466e-14
-1.49390977819251e-13
-4.09771930212962e-14
-1.40263514827059e-13
-4.05216094251589e-14
-1.30972497314577e-13
-4.0078724303514e-14
-1.21555392578052e-13
-3.96495737182605e-14
-1.12019848191487e-13
-3.92393143009068e-14
-1.02357163543703e-13
-3.88516789592266e-14
-9.25139804534593e-14
-3.84936836022562e-14
-8.24164675379118e-14
-3.81681779779962e-14
-7.19878286498697e-14
-3.78732780824999e-14
-6.12578237037635e-14
-3.75924993745193e-14
-5.04803344117495e-14
-3.7309007213501e-14
-4.01131961505065e-14
-3.70822571894611e-14
-3.04521716381325e-14
-3.73945650344413e-14
-1.85825326061545e-14
-3.93531635902806e-14
-3.86753159736284e-14
3.15903417001774e-16
-9.86997138707847e-14
-1.1263463782209e-14
-9.20630984136729e-14
-2.32557383438093e-14
-9.14388175150393e-14
-3.42834285164389e-14
-9.12638325192882e-14
-4.47270974411565e-14
-9.12254767136351e-14
-5.49388846016526e-14
-9.1204230596876e-14
-6.49749374199814e-14
-9.11551899217714e-14
-7.47276988261177e-14
-9.10491170114305e-14
-8.40547775350146e-14
-9.08659464290141e-14
-9.28243570056447e-14
-9.05963647344741e-14
-1.00941909373232e-13
-9.02368877947437e-14
-1.08336840656402e-13
-8.9790660581902e-14
-1.14971446500792e-13
-8.92621424060135e-14
-1.2081877875171e-13
-8.86594901810203e-14
-1.25875365755699e-13
-8.79895645430514e-14
-1.30138390881917e-13
-8.72615969963948e-14
-1.33623515390708e-13
-8.64823012962376e-14
-1.36341578574724e-13
-8.56603692042771e-14
-1.38319938922352e-13
-8.48015206635499e-14
-1.39578274148193e-13
-8.39134684575658e-14
-1.40151948113748e-13
-8.30008462998317e-14
-1.40066868869157e-13
-8.20703982088576e-14
-1.39363858744002e-13
-8.11258135267348e-14
-1.38072899403339e-13
-8.01729820218608e-14
-1.3623786507906e-13
-7.92148106748797e-14
-1.33890680411721e-13
-7.82564317642509e-14
-1.31075999879805e-13
-7.73000876733163e-14
-1.27825841801245e-13
-7.63502033914557e-14
-1.24183894253211e-13
-7.54084227845901e-14
-1.20181117659324e-13
-7.44784761429239e-14
-1.15859364636326e-13
-7.35614480258914e-14
-1.11248287889469e-13
-7.26603925720999e-14
-1.06387881926865e-13
-7.17759131469287e-14
-1.0130678581858e-13
-7.09105028793883e-14
-9.60431774234189e-14
-7.00645162643305e-14
-9.06242114463846e-14
-6.92402351737451e-14
-8.50844104155117e-14
-6.84383103109795e-14
-7.94454947153962e-14
-6.76615769318705e-14
-7.37309928821057e-14
-6.69120286764617e-14
-6.79452795850072e-14
-6.61943402493277e-14
-6.20836919676968e-14
-6.55130840037862e-14
-5.61130439294465e-14
-6.48749869986033e-14
-4.99876108164926e-14
-6.42842392156439e-14
-4.3658003976259e-14
-6.37404825574324e-14
-3.71422291687225e-14
-6.32328615903909e-14
-3.06089152915909e-14
-6.27565361236846e-14
-2.44182239433201e-14
-6.23931201637592e-14
-1.89570654483964e-14
-6.25515833428024e-14
-1.37250755102746e-14
-6.35589246009592e-14
-6.62972233846886e-14
6.21214116197865e-16
-1.40906550700037e-13
-1.10709973362786e-14
-1.29146799879341e-13
-2.32259055542922e-14
-1.29308718555453e-13
-3.42967432800994e-14
-1.29323210465281e-13
-4.47517440154085e-14
-1.29313732418862e-13
-5.49634228860968e-14
-1.29275573044156e-13
-6.49919359200986e-14
-1.2917561320049e-13
-7.47319496667818e-14
-1.28978747316517e-13
-8.40436664161302e-14
-1.28660632486611e-13
-9.27966391430544e-14
-1.2821098176431e-13
-1.00897934491657e-13
-1.276285225608e-13
-1.08277239884517e-13
-1.26919625633385e-13
-1.14897750421757e-13
-1.26093258515735e-13
-1.20732175716353e-13
-1.25161641775715e-13
-1.25777634706918e-13
-1.24136331770838e-13
-1.3003067922634e-13
-1.23030282208241e-13
-1.33507475693959e-13
-1.2185445435352e-13
-1.36218127460041e-13
-1.20620639943394e-13
-1.38190509716928e-13
-1.19338241540749e-13
-1.39443543335635e-13
-1.18017458388383e-13
-1.400131436201e-13
-1.16666074267468e-13
-1.39924472051497e-13
-1.15292780545001e-13
-1.39218928595553e-13
-1.13903939457522e-13
-1.37925769055584e-13
-1.12506924231609e-13
-1.36089453564607e-13
-1.11106889526797e-13
-1.33741205433134e-13
-1.09710056449368e-13
-1.30926254887752e-13
-1.08320540006959e-13
-1.2767594618043e-13
-1.06943525614523e-13
-1.24034518435175e-13
-1.0558220416676e-13
-1.20032291162006e-13
-1.04240799603558e-13
-1.15711637572471e-13
-1.0292166293022e-13
-1.11101617338329e-13
-1.01628127360349e-13
-1.06242724357515e-13
-1.00361817746351e-13
-1.01163082048314e-13
-9.91253301887614e-14
-9.59013758490638e-14
-9.79198181818536e-14
-9.04843707266258e-14
-9.67475112338177e-14
-8.49471586567124e-14
-9.56096402233019e-14
-7.93112640991606e-14
-9.45088284527153e-14
-7.36009018420284e-14
-9.34474162459621e-14
-6.78204238886932e-14
-9.24297217480492e-14
-6.19657031159941e-14
-9.14605807842388e-14
-5.60028967109636e-14
-9.05467677734878e-14
-4.98851119896671e-14
-8.96940823887923e-14
-4.35603020381967e-14
-8.89054753893682e-14
-3.70479901063961e-14
-8.81768511445825e-14
-3.05385746040276e-14
-8.7508787068014e-14
-2.44754713328413e-14
-8.69650005931534e-14
-1.9262114488081e-14
-8.67735741682839e-14
-1.40924677996672e-14
-8.68264656734805e-14
-9.35436384011294e-14
2.68730832022957e-16
-1.8224291298205e-13
-1.11006300684245e-14
-1.65795780470771e-13
-2.32309249618432e-14
-1.66402163863458e-13
-3.42972386254068e-14
-1.66583828174861e-13
-4.47459727539589e-14
-1.66621679656026e-13
-5.49430620579514e-14
-1.66574524270922e-13
-6.49481924203401e-14
-1.66422573201682e-13
-7.46587131720397e-14
-1.66131109664034e-13
-8.39383290003121e-14
-1.65674932628217e-13
-9.26588355753772e-14
-1.65044031169563e-13
-1.00729202630537e-13
-1.64239460561326e-13
-1.08079760886115e-13
-1.63270676597085e-13
-1.14674515633385e-13
-1.621507947656e-13
-1.20486008128631e-13
-1.60895907584445e-13
-1.25511706418528e-13
-1.5952193486995e-13
-1.29747663914979e-13
-1.58045459928279e-13
-1.33210256025126e-13
-1.56481413463788e-13
-1.35908989631701e-13
-1.54844671270102e-13
-1.37871941454921e-13
-1.53148069737797e-13
-1.39117430066852e-13
-1.51404324323648e-13
-1.39681600704276e-13
-1.49624132568222e-13
-1.39589034661195e-13
-1.47818190732439e-13
-1.38881388147761e-13
-1.45995306305418e-13
-1.37587364768396e-13
-1.44164414563271e-13
-1.35751695022995e-13
-1.42332702298489e-13
-1.3340507830655e-13
-1.40507577169055e-13
-1.30593016268423e-13
-1.38694828134794e-13
-1.27346357150206e-13
-1.36900515929029e-13
-1.23709602075026e-13
-1.35129199043198e-13
-1.19712604853525e-13
-1.33385722182333e-13
-1.1539798782937e-13
-1.31673540064608e-13
-1.10794386013649e-13
-1.2999639416111e-13
-1.05942539538801e-13
-1.28356775192071e-13
-1.00870213524451e-13
-1.26757496272198e-13
-9.5616365683709e-14
-1.25200344018969e-13
-9.02075135691645e-14
-1.2368757134729e-13
-8.46791002341094e-14
-1.22220792419891e-13
-7.90525812036296e-14
-1.20802436834974e-13
-7.33526677823938e-14
-1.19434956710737e-13
-6.75838417654483e-14
-1.1812228584024e-13
-6.17424603504984e-14
-1.16869290837219e-13
-5.57944341774972e-14
-1.15682782622466e-13
-4.96921543536906e-14
-1.14569969485239e-13
-4.33818079162957e-14
-1.13536926250283e-13
-3.6884088311434e-14
-1.12585148926422e-13
-3.04052033976667e-14
-1.11716781380227e-13
-2.44299476000416e-14
-1.10966184129654e-13
-1.92857197703677e-14
-1.10436284308919e-13
-1.3719308975456e-14
-1.09878779584546e-13
-1.2001147427132e-13
-1.12473312163183e-16
-2.22383306367838e-13
-1.12497848304821e-14
-2.01674046626055e-13
-2.32764410354203e-14
-2.02423679001177e-13
-3.43070573892468e-14
-2.02738966582349e-13
-4.47346574263822e-14
-2.02828991483502e-13
-5.49056560044228e-14
-2.02775320445946e-13
-6.4876014049142e-14
-2.02569816311956e-13
-7.45454590579018e-14
-2.02180790740973e-13
-8.37814918344763e-14
-2.01584065981158e-13
-9.24586732558007e-14
-2.00770843962954e-13
-1.00488072231533e-13
-1.99744729502602e-13
-1.07800933673741e-13
-1.98518291995069e-13
-1.14362006753708e-13
-1.97108598132675e-13
-1.20143789259998e-13
-1.9553550431406e-13
-1.25143915087343e-13
-1.93819051825138e-13
-1.29358024452733e-13
-1.91979364415939e-13
-1.32802479207681e-13
-1.90035117431663e-13
-1.35486276484452e-13
-1.88004217566539e-13
-1.37437463065322e-13
-1.85902731232324e-13
-1.38673853235421e-13
-1.83745866022156e-13
-1.3923159229398e-13
-1.8154704621711e-13
-1.3913478960034e-13
-1.79318970556638e-13
-1.38425133752495e-13
-1.7707271985958e-13
-1.37130891536088e-13
-1.74818806842098e-13
-1.35296849139916e-13
-1.72566294704614e-13
-1.32953301609925e-13
-1.70323809021858e-13
-1.30145819019238e-13
-1.68098674872719e-13
-1.26904874374472e-13
-1.65897873765792e-13
-1.23275040823643e-13
-1.63727212126821e-13
-1.1928582499501e-13
-1.61592211215166e-13
-1.14979921372521e-13
-1.59497324986491e-13
-1.10385652581057e-13
-1.57446761548455e-13
-1.05543839783671e-13
-1.55443779817308e-13
-1.00481991767884e-13
-1.53491457240764e-13
-9.52391832349585e-14
-1.51592107549704e-13
-8.98417723298543e-14
-1.49748024386098e-13
-8.43254063398584e-14
-1.4796107327632e-13
-7.87115466487705e-14
-1.46233463393965e-13
-7.30252752423981e-14
-1.44567598525067e-13
-6.72713071712079e-14
-1.42966970323068e-13
-6.14464856720321e-14
-1.41436309301542e-13
-5.55168203675341e-14
-1.39982360572446e-13
-4.94344184922181e-14
-1.38613408502738e-13
-4.31443218058001e-14
-1.37338036527258e-13
-3.66673859819144e-14
-1.36162074879784e-13
-3.02178766764519e-14
-1.35088126271642e-13
-2.42977804442548e-14
-1.3412855936888e-13
-1.91481459337035e-14
-1.33292713045818e-13
-1.3312672678848e-14
-1.32388864074914e-13
-1.45367122361468e-13
-4.50441033270249e-16
-2.61565927376061e-13
-1.14367128970106e-14
-2.36897529129643e-13
-2.3355261056662e-14
-2.3779660391089e-13
-3.4329607406596e-14
-2.38194302617133e-13
-4.47212991274903e-14
-2.38319703880167e-13
-5.48543530457629e-14
-2.38254308961073e-13
-6.47788439819793e-14
-2.37991579982076e-13
-7.43963770355214e-14
-2.37501354149728e-13
-8.3578297760248e-14
-2.36760849914833e-13
-9.22022675903573e-14
-2.35762963523771e-13
-1.00181596463344e-13
-2.34514000685438e-13
-1.07448653524215e-13
-2.3302971722165e-13
-1.13968885324924e-13
-2.31331016453844e-13
-1.19714835839253e-13
-2.29441483733195e-13
-1.24684159573827e-13
-2.27385117049098e-13
-1.2887213463967e-13
-2.25185546856406e-13
-1.32294930746853e-13
-2.22865030213876e-13
-1.34961084968605e-13
-2.20444490246475e-13
-1.36898429419562e-13
-2.17943070476183e-13
-1.38124332580413e-13
-2.1537847326046e-13
-1.38674758412548e-13
-2.12766706424339e-13
-1.38573411827826e-13
-2.10122486668143e-13
-1.3786183945358e-13
-2.07459034642587e-13
-1.36567945734155e-13
-2.04788466323491e-13
-1.34736407511069e-13
-2.02121598742626e-13
-1.32397194746425e-13
-1.99468310329097e-13
-1.29595791681985e-13
-1.96837352066485e-13
-1.26362377593769e-13
-1.94236669147824e-13
-1.2274145439693e-13
-1.91673218455715e-13
-1.18762261933712e-13
-1.89153246171583e-13
-1.14467433282104e-13
-1.8668211847497e-13
-1.098850538076e-13
-1.84264558220585e-13
-1.05055899359471e-13
-1.81904508881984e-13
-1.00007287833872e-13
-1.79605348905497e-13
-9.47782889598841e-14
-1.77369825539091e-13
-8.93951538907907e-14
-1.75200281992708e-13
-8.38936158717994e-14
-1.73098715928208e-13
-7.82951849689774e-14
-1.71067085317669e-13
-7.26252151680718e-14
-1.69107599965826e-13
-6.68887312414065e-14
-1.67223252976921e-13
-6.108308007148e-14
-1.65418489836288e-13
-5.51746560500401e-14
-1.63699900892872e-13
-4.91156411144602e-14
-1.62076568114997e-13
-4.2850388650381e-14
-1.60559111493558e-13
-3.63989474864815e-14
-1.59156924776291e-13
-2.99780252897564e-14
-1.57873766898385e-13
-2.40888594317006e-14
-1.56705225869548e-13
-1.89224776980415e-14
-1.55629791626373e-13
-1.29493025903612e-14
-1.54460390540057e-13
-1.70004877514945e-13
-7.72633995090848e-16
-2.99442980129531e-13
-1.16613945597238e-14
-2.71020356403999e-13
-2.34546829271287e-14
-2.71940316907218e-13
-3.43609630349091e-14
-2.724071194933e-13
-4.47049578579727e-14
-2.72560966131129e-13
-5.47886799780348e-14
-2.72478257306877e-13
-6.46562983588545e-14
-2.72154114824126e-13
-7.42112634167652e-14
-2.71559617642551e-13
-8.332884013418e-14
-2.70673428730363e-13
-9.1890042290942e-14
-2.69490352976835e-13
-9.98105423387053e-14
-2.6801948005796e-13
-1.07023996285805e-13
-2.66279779943299e-13
-1.13496521185633e-13
-2.64295886522308e-13
-1.19200764168009e-13
-2.62095027859327e-13
-1.24134287854269e-13
-2.59704990722953e-13
-1.28292027006206e-13
-2.57152806861099e-13
-1.31689817853133e-13
-2.54464144987671e-13
-1.34335752568771e-13
-2.51662852224249e-13
-1.36257302981385e-13
-2.48770994481386e-13
-1.3747141394145e-13
-2.45808695997976e-13
-1.3801372663497e-13
-2.42794411727696e-13
-1.37907571965744e-13
-2.39744822218411e-13
-1.37194220398792e-13
-2.36675169476456e-13
-1.35901251647411e-13
-2.33599135462901e-13
-1.34073107909895e-13
-2.30529189903972e-13
-1.31739477291517e-13
-2.27476441895681e-13
-1.28945642595087e-13
-2.24450983883571e-13
-1.25721536022532e-13
-2.21461715703202e-13
-1.22111481822192e-13
-2.18516675665812e-13
-1.18144499841007e-13
-2.1562283599572e-13
-1.13863062331963e-13
-2.1278641831205e-13
-1.09295059820642e-13
-2.10012665834773e-13
-1.04481126905507e-13
-2.07306155087039e-13
-9.94484236889113e-14
-2.0467056544514e-13
-9.42359188955992e-14
-2.02109019238784e-13
-8.88697772972107e-14
-1.99623888888141e-13
-8.33857222220917e-14
-1.97217224595102e-13
-7.78053266979887e-14
-1.94890681366919e-13
-7.21541405402824e-14
-1.92646171492967e-13
-6.64375516171895e-14
-1.90486114959613e-13
-6.06534430260775e-14
-1.88414561264285e-13
-5.47688320587828e-14
-1.86437851350221e-13
-4.87362851504665e-14
-1.84565690444003e-13
-4.24998491156701e-14
-1.82810479740772e-13
-3.60781640852428e-14
-1.81184945134869e-13
-2.96858950683963e-14
-1.79695160685229e-13
-2.38200062163911e-14
-1.78330987879147e-13
-1.86301735471666e-14
-1.77029737094048e-13
-1.26118076946869e-14
-1.75684707394492e-13
-1.93531176521173e-13
-1.09446663100617e-15
-3.36222168282718e-13
-1.18913697465088e-14
-3.04221944561797e-13
-2.35713827858004e-14
-3.05258690460651e-13
-3.43994253255443e-14
-3.05761663391055e-13
-4.4684281586907e-14
-3.05924208109552e-13
-5.47076455092652e-14
-3.05815003149678e-13
-6.45076754229087e-14
-3.05424279908991e-13
-7.39897177481605e-14
-3.04722231549727e-13
-8.30330729467326e-14
-3.03688421521252e-13
-9.15223259914492e-14
-3.02319514397135e-13
-9.93756194065294e-14
-3.00627322197408e-13
-1.06528025178214e-13
-2.98634012233387e-13
-1.12946308902995e-13
-2.96367813848383e-13
-1.18603257386757e-13
-2.9385953649356e-13
-1.23496244494837e-13
-2.91140589517932e-13
-1.27619864231356e-13
-2.88241346634595e-13
-1.30989497426922e-13
-2.85190724438292e-13
-1.33612790953121e-13
-2.82015452069452e-13
-1.3551673122051e-13
-2.78740365819526e-13
-1.36717845759914e-13
-2.75387987884301e-13
-1.37251332154435e-13
-2.71979081538572e-13
-1.37140161674973e-13
-2.68532282747123e-13
-1.36425214775026e-13
-2.65064729442375e-13
-1.35133768110004e-13
-2.61591674308737e-13
-1.3330992372189e-13
-2.58127127950272e-13
-1.30983115553547e-13
-2.54683446106892e-13
-1.28198328256116e-13
-2.51271964487354e-13
-1.24985278651891e-13
-2.47902562780558e-13
-1.21388024467274e-13
-2.44584275383669e-13
-1.17435397899357e-13
-2.41324832181227e-13
-1.13169626602162e-13
-2.38131235215757e-13
-1.08618434427067e-13
-2.35009281202728e-13
-1.03822231687268e-13
-2.31964109274666e-13
-9.88080392238853e-14
-2.2899972584778e-13
-9.3614638285107e-14
-2.26119552529859e-13
-8.82681130882091e-14
-2.23325998355396e-13
-8.28040881641194e-14
-2.20621073935763e-13
-7.72442008613214e-14
-2.18006112184837e-13
-7.16141279200638e-14
-2.15482619002292e-13
-6.59196645861228e-14
-2.13052405596033e-13
-6.0159266819145e-14
-2.10719020348376e-13
-5.43007929801482e-14
-2.08488525723107e-13
-4.829748349602e-14
-2.06371162695145e-13
-4.20934663544559e-14
-2.04381097387609e-13
-3.5705718728657e-14
-2.02534473356827e-13
-2.93448524944816e-14
-2.00840860223538e-13
-2.34946942248079e-14
-1.99284870770782e-13
-1.82939231650573e-14
-1.97808564506119e-13
-1.22659531400641e-14
-1.96271630650271e-13
-2.16329307750037e-13
-1.43314117863082e-15
-3.71430171861706e-13
-1.21505537559376e-14
-3.3600124747772e-13
-2.3697125848532e-14
-3.37038044795718e-13
-3.44400615778604e-14
-3.37580553365498e-13
-4.46569804635351e-14
-3.37748198948586e-13
-5.46099648437703e-14
-3.37606473271548e-13
-6.43321635036886e-14
-3.3714503010746e-13
-7.373126543667e-14
-3.36333609066412e-13
-8.26908463849061e-14
-3.35152487795088e-13
-9.10992781830543e-14
-3.33600082462561e-13
-9.88772921777404e-14
-3.31690824745875e-13
-1.05961475863204e-13
-3.29449970723199e-13
-1.12319239862488e-13
-3.26909180091414e-13
-1.17923520955524e-13
-3.24102679630466e-13
-1.22771434099706e-13
-3.21065306776464e-13
-1.26857209018943e-13
-3.17830607861483e-13
-1.30195679680473e-13
-3.14430563643459e-13
-1.32794019743019e-13
-3.10894635680268e-13
-1.34678637094045e-13
-3.07250271223394e-13
-1.35865619534132e-13
-3.03522266331881e-13
-1.36389632818671e-13
-2.99733559131914e-13
-1.36273273711092e-13
-2.95904641623579e-13
-1.35556951351233e-13
-2.92054438551166e-13
-1.3426763187711e-13
-2.88199696445083e-13
-1.32449003612804e-13
-2.84355879862125e-13
-1.30130245494011e-13
-2.80536534231413e-13
-1.27355978167733e-13
-2.76754171387631e-13
-1.241557071323e-13
-2.73019610900339e-13
-1.20573163986782e-13
-2.69342832990659e-13
-1.16636998967975e-13
-2.65732298613627e-13
-1.1238913839731e-13
-2.62195752978129e-13
-1.0785714173167e-13
-2.58739528061589e-13
-1.03081136104343e-13
-2.55369295490745e-13
-9.80879961547601e-14
-2.52089371422894e-13
-9.2916249988198e-14
-2.48903445421886e-13
-8.75918822159455e-14
-2.45813937548533e-13
-8.21503479447633e-14
-2.42822778004804e-13
-7.66133277689648e-14
-2.39930938086856e-13
-7.1006574757303e-14
-2.37139466524874e-13
-6.53363184481234e-14
-2.34449518179626e-13
-5.96016433214395e-14
-2.31864091803344e-13
-5.37714523660533e-14
-2.29388934084441e-13
-4.77999672963149e-14
-2.27034805932966e-13
-4.16318104576042e-14
-2.24817677074014e-13
-3.52823155392516e-14
-2.2275729346355e-13
-2.89558552093926e-14
-2.20867504839028e-13
-2.31256177513997e-14
-2.19135696470129e-13
-1.79096907558945e-14
-2.17474011727684e-13
-1.19078530802181e-14
-2.15806734953704e-13
-2.3788954882723e-13
-1.78679679370503e-15
-4.0529761872363e-13
-1.24097526907482e-14
-3.66603202664093e-13
-2.38327529582809e-14
-3.67752926084686e-13
-3.44819729817524e-14
-3.6830836381715e-13
-4.4621549058907e-14
-3.68464039712922e-13
-5.4494604070721e-14
-3.68281582425577e-13
-6.41293082647234e-14
-3.67745214619921e-13
-7.34359851434475e-14
-3.66822771434486e-13
-8.23027450794848e-14
-3.65494758921268e-13
-9.06219637838681e-14
-3.63761133588766e-13
-9.83170787049519e-14
-3.61638753758366e-13
-1.05326278240413e-13
-3.5915581889148e-13
-1.11617614784474e-13
-3.56347220686437e-13
-1.17164177781315e-13
-3.53250460027298e-13
-1.21962759411492e-13
-3.49903605782519e-13
-1.26007198006623e-13
-3.46343254855137e-13
-1.29311697733102e-13
-3.42604273544902e-13
-1.31882928672641e-13
-3.38718761310167e-13
-1.33746635916248e-13
-3.34716619019466e-13
-1.34918442779015e-13
-3.30624847382413e-13
-1.35432403486875e-13
-3.26468422125815e-13
-1.3531072298807e-13
-3.22269643828055e-13
-1.34593265869587e-13
-3.18049105570689e-13
-1.33306677775831e-13
-3.1382501903027e-13
-1.31494167248967e-13
-3.0961420185323e-13
-1.29184654825872e-13
-3.05431376443304e-13
-1.26422338088303e-13
-3.01290145975089e-13
-1.23236512695826e-13
-2.97202270218928e-13
-1.19670530432643e-13
-2.93178604383458e-13
-1.15752862597771e-13
-2.89228350390602e-13
-1.11525082205398e-13
-2.85359936657416e-13
-1.07014583624734e-13
-2.81580245491207e-13
-1.02261155121502e-13
-2.77895427422369e-13
-9.72915146871818e-14
-2.74310122757124e-13
-9.2143873050672e-14
-2.70828235667193e-13
-8.68440923591715e-14
-2.6745220463222e-13
-8.14273879923664e-14
-2.64183821423844e-13
-7.59154599039051e-14
-2.610236942506e-13
-7.03340876945657e-14
-2.57972355204689e-13
-6.46899618755596e-14
-2.55030302315842e-13
-5.89828539115661e-14
-2.52199940589354e-13
-5.31829203459689e-14
-2.49486727575965e-13
-4.72456850972933e-14
-2.46901960547831e-13
-4.11167145688436e-14
-2.4446354145282e-13
-3.4809868394915e-14
-2.42195014275632e-13
-2.85229031268237e-14
-2.40115009795455e-13
-2.27101965782722e-14
-2.38209568699497e-13
-1.74928717179373e-14
-2.36407323605317e-13
-1.15209165372896e-14
-2.34570326636329e-13
-2.5863105247067e-13
-2.16346101213883e-15
-4.37292641224909e-13
-1.26971834841057e-14
-3.95487624317169e-13
-2.39716123860367e-14
-3.96621889745124e-13
-3.45208919565154e-14
-3.97200476475518e-13
-4.45759347388803e-14
-3.97344928262665e-13
-5.43605121213715e-14
-3.97117946549101e-13
-6.38986974712598e-14
-3.96504306878276e-13
-7.31039820180382e-14
-3.95471164502015e-13
-8.18693387494611e-14
-3.93999285185576e-13
-9.00913688301972e-14
-3.92090015143072e-13
-9.76963449925731e-14
-3.89762455371954e-13
-1.04624128693495e-13
-3.87047537248156e-13
-1.10843424624239e-13
-3.83983155873473e-13
-1.16327464224876e-13
-3.80609843906904e-13
-1.21072671684817e-13
-3.76968668039386e-13
-1.25072452684234e-13
-3.7309904420383e-13
-1.28340319679588e-13
-3.69038516539226e-13
-1.30882393105549e-13
-3.64821620811393e-13
-1.32723693012569e-13
-3.60480538495297e-13
-1.33879336470449e-13
-3.56044306522264e-13
-1.34382708918019e-13
-3.51539799057335e-13
-1.34255588429312e-13
-3.46990988077557e-13
-1.33537244239859e-13
-3.42420026438437e-13
-1.32253973486948e-13
-3.37846481919582e-13
-1.30448460902275e-13
-3.33288443607723e-13
-1.28149347214401e-13
-3.28761726471559e-13
-1.25400369154433e-13
-3.24280966305706e-13
-1.22230596242128e-13
-3.19858799322207e-13
-1.18682966939392e-13
-3.15506915695735e-13
-1.14785759169231e-13
-3.1123521100533e-13
-1.10580159418395e-13
-3.07052771160003e-13
-1.06093379112074e-13
-3.02966993471365e-13
-1.01364828959326e-13
-2.98984491347674e-13
-9.64210429188351e-14
-2.95110201148055e-13
-9.12998652960645e-14
-2.91348230688652e-13
-8.60269965601796e-14
-2.87701011872194e-13
-8.06373562027778e-14
-2.84170189542367e-13
-7.51526251455293e-14
-2.80755986785645e-13
-6.95985744752488e-14
-2.77458416362945e-13
-6.39823714464192e-14
-2.74277306423357e-13
-5.83045506604937e-14
-2.71214478265563e-13
-5.25367285912101e-14
-2.68275103450876e-13
-4.66360803254018e-14
-2.6547105062646e-13
-4.0549582776201e-14
-2.62822196423792e-13
-3.42898672765251e-14
-2.60355952112003e-13
-2.80465428543017e-14
-2.58095865432019e-13
-2.22596353062335e-14
-2.56033560795514e-13
-1.70336224983955e-14
-2.54067615361453e-13
-1.11140895055311e-14
-2.52124372951414e-13
-2.77981170045289e-13
-2.55509528742091e-15
-4.67702608269402e-13
-1.29807498315919e-14
-4.22967285181354e-13
-2.4116259067515e-14
-4.24207191371172e-13
-3.45570049036091e-14
-4.24783267086115e-13
-4.45191893106861e-14
-4.24901742969964e-13
-5.42071022036653e-14
-4.24624216960877e-13
-6.36404118778149e-14
-4.23931081678791e-13
-7.27360121895488e-14
-4.22787713156444e-13
-8.13920212392487e-14
-4.21174849861307e-13
-8.95094788880383e-14
-4.19095031624981e-13
-9.7017615462037e-14
-4.16569373134228e-13
-1.03858033350652e-13
-4.13631321329583e-13
-1.10000096633424e-13
-4.10321530504473e-13
-1.15417170258824e-13
-4.06683361135733e-13
-1.20105265726135e-13
-4.02760651258041e-13
-1.24057320768704e-13
-3.98595465578075e-13
-1.27286095748871e-13
-3.94227829493767e-13
-1.29797122527146e-13
-3.89694580973401e-13
-1.31614635020137e-13
-3.85030014919383e-13
-1.32753209604837e-13
-3.80265102078961e-13
-1.33245506173901e-13
-3.75428473959906e-13
-1.33112848020359e-13
-3.70545698456871e-13
-1.32393858111179e-13
-3.65640370402177e-13
-1.31114463909603e-13
-3.60733361284867e-13
-1.29316781618855e-13
-3.55843934661583e-13
-1.27029157173559e-13
-3.50988965140896e-13
-1.24294827409385e-13
-3.46184042240125e-13
-1.21142625336131e-13
-3.41442661381184e-13
-1.17615040767411e-13
-3.36777283744699e-13
-1.13740149208313e-13
-3.3219849313473e-13
-1.09558714996856e-13
-3.2771598061901e-13
-1.05097753581772e-13
-3.23337661096736e-13
-1.00396256410248e-13
-3.19070566843058e-13
-9.54805503043978e-14
-3.14919937393685e-13
-9.03880605923637e-14
-3.1089004569979e-13
-8.51442909781364e-14
-3.06983326674213e-13
-7.97838055140111e-14
-3.03201245008973e-13
-7.43282325402678e-14
-2.99543653460957e-13
-6.88032969905588e-14
-2.96010023894371e-13
-6.32166644073843e-14
-2.92599544743289e-13
-5.75697069572355e-14
-2.89313455199544e-13
-5.18357153855197e-14
-2.86156696702801e-13
-4.59738667747348e-14
-2.83141740435954e-13
-3.99330216984604e-14
-2.80290511458895e-13
-3.37248456069427e-14
-2.776343068044e-13
-2.75309666949703e-14
-2.752015791471e-13
-2.17681489478166e-14
-2.72983030357353e-13
-1.65478118990616e-14
-2.70899553406889e-13
-1.06757450648436e-14
-2.68801077757314e-13
-2.96412384340225e-13
-2.96786574444405e-15
-4.95966397167838e-13
-1.32907263778201e-14
-4.48475338882346e-13
-2.42602779960695e-14
-4.49682382403686e-13
-3.45866238743462e-14
-4.5026981815006e-13
-4.44498078084143e-14
-4.50366406800194e-13
-5.40338183835573e-14
-4.50037098733031e-13
-6.33545697470214e-14
-4.49264374303754e-13
-7.23327963657646e-14
-4.48013417061827e-13
-8.08720666803739e-14
-4.46265159508957e-13
-8.88780642655569e-14
-4.44023232170633e-13
-9.62831025108759e-14
-4.41310569091731e-13
-1.03030585644167e-13
-4.3816287648623e-13
-1.09090554291032e-13
-4.3462330138032e-13
-1.14436492789608e-13
-4.30737741495846e-13
-1.1906396930635e-13
-4.26552541692095e-13
-1.22965411747627e-13
-4.22112142949755e-13
-1.26152783618986e-13
-4.17458822051378e-13
-1.28630981013434e-13
-4.12631483492375e-13
-1.30423406810239e-13
-4.07666347653922e-13
-1.3154405257528e-13
-4.02596122357589e-13
-1.32024812297936e-13
-3.97451048136258e-13
-1.31886516006685e-13
-3.92258128080997e-13
-1.31167105831852e-13
-3.87042285778109e-13
-1.29892107253989e-13
-3.81825567719253e-13
-1.2810303923889e-13
-3.76628328896111e-13
-1.25827926448366e-13
-3.71468402391284e-13
-1.2310948219465e-13
-3.66362273437923e-13
-1.1997628092701e-13
-3.61324218303207e-13
-1.16470343115125e-13
-3.56367431088661e-13
-1.12619521079383e-13
-3.51503123670796e-13
-1.08464135116288e-13
-3.46741569594769e-13
-1.04030980018146e-13
-3.4209115557781e-13
-9.93585990479051e-14
-3.37559322108701e-13
-9.44730773811309e-14
-3.33151577989464e-13
-8.94113808357626e-14
-3.28872361040777e-13
-8.41987705620331e-14
-3.24724086745007e-13
-7.88694076270072e-14
-3.2070805108986e-13
-7.3444825148828e-14
-3.16823728831364e-13
-6.79506772029951e-14
-3.1307007931096e-13
-6.23951420214478e-14
-3.09445663081355e-13
-5.67805173334635e-14
-3.05951182073127e-13
-5.10819763186012e-14
-3.02591364947793e-13
-4.52610595306768e-14
-2.99379307962991e-13
-3.92689705348366e-14
-2.96338930128087e-13
-3.31166636922042e-14
-2.93505277259218e-13
-2.69763294975335e-14
-2.90911483191689e-13
-2.12472797104206e-14
-2.88554579960928e-13
-1.60231929875374e-14
-2.86323355624207e-13
-1.0218913663326e-14
-2.8413905136951e-13
-3.13311170448725e-13
-3.39177922303382e-15
-5.22432889551091e-13
-1.3592487257737e-14
-4.72387914595037e-13
-2.44071369328381e-14
-4.73690583063062e-13
-3.46107710370831e-14
-4.74263589235055e-13
-4.43674807914169e-14
-4.74325149182566e-13
-5.38406372760312e-14
-4.73940139752336e-13
-6.30418304369531e-14
-4.73087661446158e-13
-7.18957319775472e-14
-4.7173164832823e-13
-8.03115848453793e-14
-4.69853054825509e-13
-8.81998984958313e-14
-4.67456457099667e-13
-9.54961793595007e-14
-4.64566387974405e-13
-1.02145691867896e-13
-4.61220574689278e-13
-1.08119164319913e-13
-4.57464390795838e-13
-1.13390192838877e-13
-4.53346036301112e-13
-1.17953869620765e-13
-4.48914115753904e-13
-1.21802081523239e-13
-4.4421524888562e-13
-1.24945948979029e-13
-4.39293752020828e-13
-1.27389697054028e-13
-4.3419043959181e-13
-1.29155850485949e-13
-4.28943280007592e-13
-1.3025778401974e-13
-4.23586597393216e-13
-1.30726582284328e-13
-4.18152093905571e-13
-1.30582555430756e-13
-4.1266811733196e-13
-1.29862926317345e-13
-4.07160798786044e-13
-1.28592797548204e-13
-4.01653294838347e-13
-1.26813057612476e-13
-3.96166953381008e-13
-1.24551394210232e-13
-3.90720522235134e-13
-1.21849968411178e-13