/*--------------------------------*- C++ -*----------------------------------*\
  =========                 |
  \\      /  F ield         | OpenFOAM: The Open Source CFD Toolbox
   \\    /   O peration     | Website:  https://openfoam.org
    \\  /    A nd           | Version:  10
     \\/     M anipulation  |
\*---------------------------------------------------------------------------*/
FoamFile
{
    format      ascii;
    class       volVectorField;
    location    "0.2";
    object      U;
}
// * * * * * * * * * * * * * * * * * * * * * * * * * * * * * * * * * * * * * //

dimensions      [0 1 -1 0 0 0 0];

internalField   nonuniform List<vector> 
2500
(
(3.58780177967303e-08 -3.21782982965099e-06 0)
(2.7736602151396e-08 -2.73331885318162e-06 0)
(-8.06549495018019e-09 -2.73373609058699e-06 0)
(-1.43657164443893e-08 -2.73371819046243e-06 0)
(-1.9730771604763e-08 -2.73371799856158e-06 0)
(-2.48895591674879e-08 -2.73371902969986e-06 0)
(-2.99477291177343e-08 -2.73371885026946e-06 0)
(-3.48921059677479e-08 -2.73371672334267e-06 0)
(-3.9660227156526e-08 -2.73371167649298e-06 0)
(-4.41834128434117e-08 -2.73370308251724e-06 0)
(-4.84048355097014e-08 -2.73369037138561e-06 0)
(-5.22830184149308e-08 -2.73367351910327e-06 0)
(-5.57907144823129e-08 -2.73365243599404e-06 0)
(-5.89116697125372e-08 -2.73362750063161e-06 0)
(-6.16382096476045e-08 -2.73359883945934e-06 0)
(-6.39687460240649e-08 -2.73356698623692e-06 0)
(-6.59064751966366e-08 -2.73353210313625e-06 0)
(-6.74580340783238e-08 -2.73349474669255e-06 0)
(-6.86329748677544e-08 -2.73345504143827e-06 0)
(-6.94430699781141e-08 -2.7334135180915e-06 0)
(-6.99020829698635e-08 -2.73337024945107e-06 0)
(-7.00253373256909e-08 -2.73332573063694e-06 0)
(-6.98295147082979e-08 -2.73327999085947e-06 0)
(-6.93323132909262e-08 -2.73323349162241e-06 0)
(-6.85521933372251e-08 -2.73318623014102e-06 0)
(-6.75080965206052e-08 -2.7331386360708e-06 0)
(-6.62191643047155e-08 -2.73309068241378e-06 0)
(-6.47045553387625e-08 -2.73304276474129e-06 0)
(-6.29831959957375e-08 -2.73299483438748e-06 0)
(-6.1073739578961e-08 -2.73294724712207e-06 0)
(-5.89943923803971e-08 -2.73289993223311e-06 0)
(-5.67630212177578e-08 -2.73285320071173e-06 0)
(-5.43970395453098e-08 -2.7328069628514e-06 0)
(-5.19135882495307e-08 -2.73276148931018e-06 0)
(-4.93293603594029e-08 -2.73271668890586e-06 0)
(-4.66606485892139e-08 -2.73267281917583e-06 0)
(-4.3922828375053e-08 -2.73262983505378e-06 0)
(-4.11298740839844e-08 -2.7325880490279e-06 0)
(-3.82929988977772e-08 -2.73254755884962e-06 0)
(-3.54190439762435e-08 -2.73250885104512e-06 0)
(-3.25078496383556e-08 -2.7324722778127e-06 0)
(-2.95500053698392e-08 -2.73243850110047e-06 0)
(-2.65262243169634e-08 -2.73240778978121e-06 0)
(-2.34136657231002e-08 -2.73237996610924e-06 0)
(-2.02052053853542e-08 -2.73235347499991e-06 0)
(-1.6944201858629e-08 -2.73232673180499e-06 0)
(-1.37535022401433e-08 -2.73230530083906e-06 0)
(-1.14022219411235e-08 -2.73232559864058e-06 0)
(-3.84537169684191e-08 -2.73184436690949e-06 0)
(-3.96479528746859e-08 -3.22037727241409e-06 0)
(6.62851517406941e-09 -4.20918423157188e-06 0)
(4.50100546188304e-09 -3.8281654458733e-06 0)
(-4.97126325761583e-09 -3.8287008539161e-06 0)
(-8.67112545664541e-09 -3.82868716439611e-06 0)
(-1.19179839452592e-08 -3.82868445438353e-06 0)
(-1.50340047514222e-08 -3.82868348336801e-06 0)
(-1.80882783797843e-08 -3.82867967768417e-06 0)
(-2.10733022396601e-08 -3.82867039543457e-06 0)
(-2.39513813485891e-08 -3.82865353658092e-06 0)
(-2.66811533685845e-08 -3.82862802008215e-06 0)
(-2.92284756160794e-08 -3.8285932389377e-06 0)
(-3.15684404541594e-08 -3.82854941577522e-06 0)
(-3.36847117303775e-08 -3.82849683264568e-06 0)
(-3.5567537002726e-08 -3.82843633321965e-06 0)
(-3.72123276260667e-08 -3.82836851114015e-06 0)
(-3.86181350506266e-08 -3.82829438483367e-06 0)
(-3.97868968114106e-08 -3.82821455844999e-06 0)
(-4.07226103575175e-08 -3.82813002347725e-06 0)
(-4.14310375943133e-08 -3.82804128640004e-06 0)
(-4.19192736500708e-08 -3.82794924930086e-06 0)
(-4.21956212155561e-08 -3.82785430551812e-06 0)
(-4.22693227899141e-08 -3.82775726259042e-06 0)
(-4.21504442494772e-08 -3.82765841632578e-06 0)
(-4.18496659509673e-08 -3.82755848955017e-06 0)
(-4.13781286121285e-08 -3.8274576997583e-06 0)
(-4.07472660368222e-08 -3.82735669342718e-06 0)
(-3.99686297244726e-08 -3.82725562331769e-06 0)
(-3.9053785305118e-08 -3.8271550619921e-06 0)
(-3.80141526331518e-08 -3.82705510399746e-06 0)
(-3.68609919858444e-08 -3.82695624547681e-06 0)
(-3.56052867722314e-08 -3.82685852549121e-06 0)
(-3.42578231398825e-08 -3.82676236215687e-06 0)
(-3.28291069520534e-08 -3.82666774678145e-06 0)
(-3.13294911711996e-08 -3.82657503082096e-06 0)
(-2.97690547289742e-08 -3.82648418592744e-06 0)
(-2.81576526495925e-08 -3.82639553970395e-06 0)
(-2.65045885725916e-08 -3.8263091139906e-06 0)
(-2.4818346403131e-08 -3.82622531130493e-06 0)
(-2.3105751668647e-08 -3.82614434100427e-06 0)
(-2.13710133997116e-08 -3.82606684941731e-06 0)
(-1.96140881250833e-08 -3.82599339401836e-06 0)
(-1.78292665574586e-08 -3.82592488183461e-06 0)
(-1.6004645490331e-08 -3.82586179118096e-06 0)
(-1.41258778483225e-08 -3.82580398768648e-06 0)
(-1.21882359530779e-08 -3.82574971328211e-06 0)
(-1.02200726916981e-08 -3.82569763607742e-06 0)
(-8.30757186248475e-09 -3.82565695626004e-06 0)
(-6.76925854134049e-09 -3.8256704309757e-06 0)
(-1.20796850611167e-08 -3.82511156797949e-06 0)
(-9.98953229589102e-09 -4.20649439722892e-06 0)
(1.46056293922118e-09 -4.89860410902672e-06 0)
(-2.87595010532032e-10 -4.42564521823045e-06 0)
(-5.10172122651105e-09 -4.42604340623323e-06 0)
(-8.66802175449709e-09 -4.42604603103632e-06 0)
(-1.19158768436212e-08 -4.42604289406519e-06 0)
(-1.5031358723644e-08 -4.42603843044297e-06 0)
(-1.80824309386275e-08 -4.42602719954707e-06 0)
(-2.10623982334905e-08 -4.4260043645549e-06 0)
(-2.39343133260683e-08 -4.4259665783082e-06 0)
(-2.66574388838435e-08 -4.42591236330482e-06 0)
(-2.91981018834265e-08 -4.42584136093984e-06 0)
(-3.15316941425541e-08 -4.42575428848766e-06 0)
(-3.36420684509715e-08 -4.42565215803349e-06 0)
(-3.55195628925592e-08 -4.42553650562586e-06 0)
(-3.71596293325676e-08 -4.42540871951739e-06 0)
(-3.85613136841108e-08 -4.42527047203302e-06 0)
(-3.97265331347885e-08 -4.42512309550004e-06 0)
(-4.06592476684647e-08 -4.42496813397268e-06 0)
(-4.13651822847786e-08 -4.42480672737087e-06 0)
(-4.1851391162944e-08 -4.4246402259139e-06 0)
(-4.21261404726686e-08 -4.4244695656188e-06 0)
(-4.2198637112058e-08 -4.4242959100164e-06 0)
(-4.20789147534378e-08 -4.42412001678236e-06 0)
(-4.17776242597351e-08 -4.42394288569358e-06 0)
(-4.13058777927447e-08 -4.42376512442506e-06 0)
(-4.06750841019978e-08 -4.42358758880811e-06 0)
(-3.98967680232963e-08 -4.42341075805246e-06 0)
(-3.8982472623615e-08 -4.42323535660395e-06 0)
(-3.79435915681743e-08 -4.42306174889728e-06 0)
(-3.6791364049409e-08 -4.42289053453512e-06 0)
(-3.55367479864275e-08 -4.42272197248119e-06 0)
(-3.41905113867055e-08 -4.42255654422636e-06 0)
(-3.27631389642975e-08 -4.42239441772478e-06 0)
(-3.12649742995444e-08 -4.42223597661407e-06 0)
(-2.97060883602341e-08 -4.42208133455875e-06 0)
(-2.80963473370004e-08 -4.4219308316389e-06 0)
(-2.64450757312724e-08 -4.42178460968486e-06 0)
(-2.47608080745257e-08 -4.42164308017946e-06 0)
(-2.30504392383565e-08 -4.42150656982279e-06 0)
(-2.13182754668131e-08 -4.42137575652396e-06 0)
(-1.95643506589793e-08 -4.42125134949139e-06 0)
(-1.77829411127387e-08 -4.42113436650014e-06 0)
(-1.59618765180027e-08 -4.42102556057236e-06 0)
(-1.4086242466969e-08 -4.42092512709067e-06 0)
(-1.21511376659855e-08 -4.42083193853141e-06 0)
(-1.0188251932104e-08 -4.42074566133518e-06 0)
(-8.29459103602609e-09 -4.42067686185438e-06 0)
(-6.6447339474888e-09 -4.42066108086613e-06 0)
(-6.57247300906164e-09 -4.42031453317163e-06 0)
(-4.01641140513527e-09 -4.89027667622769e-06 0)
(2.87052185804156e-10 -5.00087071791276e-06 0)
(-1.39979976680441e-09 -4.50850557016598e-06 0)
(-5.1592180716943e-09 -4.50869004057832e-06 0)
(-8.67037572992937e-09 -4.50871051223261e-06 0)
(-1.1914165084253e-08 -4.50871288228353e-06 0)
(-1.50261568167485e-08 -4.50870646125896e-06 0)
(-1.80712454117496e-08 -4.50868747601891e-06 0)
(-2.10429916193652e-08 -4.50865067250012e-06 0)
(-2.39053807234607e-08 -4.5085923170477e-06 0)
(-2.66185446844469e-08 -4.5085108798917e-06 0)
(-2.91494382075431e-08 -4.50840634464983e-06 0)
(-3.1473839001014e-08 -4.50827990410892e-06 0)
(-3.35758202995126e-08 -4.50813322258275e-06 0)
(-3.54458177447071e-08 -4.50796843392365e-06 0)
(-3.70793108297134e-08 -4.50778760890797e-06 0)
(-3.84753230419899e-08 -4.50759297363153e-06 0)
(-3.96357277812055e-08 -4.507386479476e-06 0)
(-4.05644262928461e-08 -4.50717013627478e-06 0)
(-4.12670835649622e-08 -4.50694562009492e-06 0)
(-4.175069277408e-08 -4.50671465793386e-06 0)
(-4.20234632668129e-08 -4.50647864265934e-06 0)
(-4.20945483717029e-08 -4.5062390354463e-06 0)
(-4.19739320880219e-08 -4.50599697958018e-06 0)
(-4.16722197722868e-08 -4.50575370417353e-06 0)
(-4.12004801694222e-08 -4.50551013935541e-06 0)
(-4.05700828504891e-08 -4.50526731227613e-06 0)
(-3.9792513622367e-08 -4.50502596936118e-06 0)
(-3.88792807276018e-08 -4.50478695819161e-06 0)
(-3.78417415987841e-08 -4.50455086280986e-06 0)
(-3.66911037778511e-08 -4.50431836668676e-06 0)
(-3.54382916178685e-08 -4.50408990737802e-06 0)
(-3.40940457617004e-08 -4.50386601807743e-06 0)
(-3.26688231459565e-08 -4.50364700895953e-06 0)
(-3.11729495881931e-08 -4.50343328769814e-06 0)
(-2.96164822414295e-08 -4.50322507587821e-06 0)
(-2.80092902126038e-08 -4.50302271132386e-06 0)
(-2.63607128428338e-08 -4.50282640845623e-06 0)
(-2.46793264721515e-08 -4.50263654809451e-06 0)
(-2.29720898408961e-08 -4.50245349142871e-06 0)
(-2.1243403234077e-08 -4.50227786037933e-06 0)
(-1.94933931131948e-08 -4.50211038618579e-06 0)
(-1.77163720979412e-08 -4.50195209272795e-06 0)
(-1.59000257859849e-08 -4.50180396036827e-06 0)
(-1.40290668381024e-08 -4.50166666932572e-06 0)
(-1.20985034058555e-08 -4.50154002357845e-06 0)
(-1.01425449534492e-08 -4.5014242254263e-06 0)
(-8.26562161164912e-09 -4.5013265771767e-06 0)
(-6.59899838224882e-09 -4.50126915384713e-06 0)
(-5.17963166241425e-09 -4.50113296794942e-06 0)
(-2.51192972861227e-09 -4.99182965198813e-06 0)
(2.29295592049516e-11 -5.02028012949301e-06 0)
(-1.67206110858285e-09 -4.52394814166768e-06 0)
(-5.20095693334047e-09 -4.52407917585842e-06 0)
(-8.67928380689299e-09 -4.52411821363158e-06 0)
(-1.19138442530837e-08 -4.52412792805316e-06 0)
(-1.50186552924403e-08 -4.52412033276547e-06 0)
(-1.80545365471367e-08 -4.52409339347943e-06 0)
(-2.10148187474498e-08 -4.5240421087658e-06 0)
(-2.38644170219348e-08 -4.52396275734925e-06 0)
(-2.65644526849425e-08 -4.52385392170393e-06 0)
(-2.90826139920005e-08 -4.52371595303544e-06 0)
(-3.13951331089714e-08 -4.52355051126026e-06 0)
(-3.34863333582957e-08 -4.52335987104373e-06 0)
(-3.53467560551292e-08 -4.52314674165817e-06 0)
(-3.69718991865404e-08 -4.52291383329438e-06 0)
(-3.83607489681559e-08 -4.522663912361e-06 0)
(-3.95151144563466e-08 -4.52239951156211e-06 0)
(-4.04388179779418e-08 -4.52212310153294e-06 0)
(-4.11374431144136e-08 -4.52183686051972e-06 0)
(-4.16179024452441e-08 -4.5215428929287e-06 0)
(-4.18883292288576e-08 -4.52124301668925e-06 0)
(-4.19578055724183e-08 -4.52093899495421e-06 0)
(-4.18362491170662e-08 -4.52063232659608e-06 0)
(-4.15342041473552e-08 -4.52032447730289e-06 0)
(-4.10626818441031e-08 -4.52001667174774e-06 0)
(-4.04329991048547e-08 -4.51971011826706e-06 0)
(-3.9656590981008e-08 -4.51940580519417e-06 0)
(-3.87449193479889e-08 -4.51910471545111e-06 0)
(-3.7709295815757e-08 -4.5188076301847e-06 0)
(-3.65608863335003e-08 -4.51851533062073e-06 0)
(-3.53105736816346e-08 -4.51822841279267e-06 0)
(-3.39690621773337e-08 -4.51794747581669e-06 0)
(-3.25467737746534e-08 -4.51767295301104e-06 0)
(-3.10540077588702e-08 -4.51740528831512e-06 0)
(-2.9500800173092e-08 -4.51714479074985e-06 0)
(-2.78970136260126e-08 -4.51689180296411e-06 0)
(-2.62519941165461e-08 -4.51664658720334e-06 0)
(-2.45743495607054e-08 -4.5164094930661e-06 0)
(-2.28710953807374e-08 -4.51618088651538e-06 0)
(-2.11467228454202e-08 -4.51596132716677e-06 0)
(-1.94014668332762e-08 -4.51575153830311e-06 0)
(-1.76297282039374e-08 -4.51555254156836e-06 0)
(-1.58191648169956e-08 -4.5153655045592e-06 0)
(-1.39542740742251e-08 -4.51519153198736e-06 0)
(-1.20299157857124e-08 -4.51503117597402e-06 0)
(-1.00815309588868e-08 -4.51488479371834e-06 0)
(-8.21712674843809e-09 -4.51475589007367e-06 0)
(-6.55022434492064e-09 -4.51465238363915e-06 0)
(-4.84220115080222e-09 -4.51452368391235e-06 0)
(-2.16913487840919e-09 -5.00961821633706e-06 0)
(-6.49289240802463e-11 -5.02809079558825e-06 0)
(-1.78179701482075e-09 -4.53059604424622e-06 0)
(-5.24355909003515e-09 -4.5307260726419e-06 0)
(-8.6947112918494e-09 -4.53078017910405e-06 0)
(-1.19152225499746e-08 -4.53079643546976e-06 0)
(-1.50088894294289e-08 -4.53078746321613e-06 0)
(-1.8032133407368e-08 -4.53075217521856e-06 0)
(-2.09776735541176e-08 -4.53068591107779e-06 0)
(-2.38112871925833e-08 -4.53058513178635e-06 0)
(-2.64951425274628e-08 -4.53044863891672e-06 0)
(-2.89977329856745e-08 -4.53027717936861e-06 0)
(-3.12957980051926e-08 -4.53007288785121e-06 0)
(-3.33739354984309e-08 -4.52983862594725e-06 0)
(-3.52227988699948e-08 -4.52957766761233e-06 0)
(-3.68378961811888e-08 -4.52929333183496e-06 0)
(-3.82181621759114e-08 -4.52898891611852e-06 0)
(-3.93653223672029e-08 -4.52866750530435e-06 0)
(-4.0283100771668e-08 -4.52833202577302e-06 0)
(-4.09769792628256e-08 -4.52798513109649e-06 0)
(-4.14537708588854e-08 -4.52762930150844e-06 0)
(-4.17215142794802e-08 -4.52726675513874e-06 0)
(-4.17892033250329e-08 -4.5268995581318e-06 0)
(-4.16666732624273e-08 -4.52652954195045e-06 0)
(-4.13643923482128e-08 -4.52615841198946e-06 0)
(-4.08933006515051e-08 -4.52578766650821e-06 0)
(-4.02646495736224e-08 -4.5254187000474e-06 0)
(-3.94898122144033e-08 -4.52505272416785e-06 0)
(-3.85801932228593e-08 -4.5246908638097e-06 0)
(-3.75470491836012e-08 -4.52433408087041e-06 0)
(-3.64014950818788e-08 -4.52398326219454e-06 0)
(-3.51543642157881e-08 -4.52363914786949e-06 0)
(-3.38163158708612e-08 -4.5233024109708e-06 0)
(-3.23977293952658e-08 -4.52297359430123e-06 0)
(-3.09088684576511e-08 -4.52265318440453e-06 0)
(-2.93597395659234e-08 -4.52234156269784e-06 0)
(-2.77601884393556e-08 -4.52203907863429e-06 0)
(-2.61195578937663e-08 -4.52174602335982e-06 0)
(-2.44464761281331e-08 -4.52146271092863e-06 0)
(-2.27480068911871e-08 -4.52118948904079e-06 0)
(-2.10287291278823e-08 -4.52092684641521e-06 0)
(-1.9289000314023e-08 -4.52067547459439e-06 0)
(-1.75233552260843e-08 -4.5204363785955e-06 0)
(-1.5719520995483e-08 -4.52021086722032e-06 0)
(-1.3861902545931e-08 -4.52000038772073e-06 0)
(-1.19451342838534e-08 -4.51980608743798e-06 0)
(-1.00049024034234e-08 -4.5196284457228e-06 0)
(-8.14942943744705e-09 -4.51946805931629e-06 0)
(-6.48330890785379e-09 -4.519323917376e-06 0)
(-4.71117108872156e-09 -4.51916446178608e-06 0)
(-2.06297324590084e-09 -5.01535528421831e-06 0)
(-1.21516544603519e-10 -5.03415136302477e-06 0)
(-1.86709644201028e-09 -4.53598928921235e-06 0)
(-5.29289037949492e-09 -4.53612744675349e-06 0)
(-8.71445619706557e-09 -4.53619267802533e-06 0)
(-1.19174857780178e-08 -4.53621372833059e-06 0)
(-1.49965251383867e-08 -4.53620256688861e-06 0)
(-1.80037604765901e-08 -4.53615833777925e-06 0)
(-2.09312970313299e-08 -4.53607658844968e-06 0)
(-2.37457809413662e-08 -4.53595399394982e-06 0)
(-2.64104764759633e-08 -4.53578962738617e-06 0)
(-2.88947384593285e-08 -4.53558464901933e-06 0)
(-3.11758563983767e-08 -4.53534167593309e-06 0)
(-3.32387232388391e-08 -4.53506414000483e-06 0)
(-3.50741089990309e-08 -4.534755870749e-06 0)
(-3.66775234396824e-08 -4.53442077088489e-06 0)
(-3.80478357028302e-08 -4.53406265853114e-06 0)
(-3.91866692836808e-08 -4.53368514557731e-06 0)
(-4.00976308740595e-08 -4.53329160609916e-06 0)
(-4.07860809819851e-08 -4.53288514581466e-06 0)
(-4.12587144663084e-08 -4.53246861549649e-06 0)
(-4.15234575405172e-08 -4.5320446124061e-06 0)
(-4.1589198978177e-08 -4.53161550277312e-06 0)
(-4.14656760458058e-08 -4.53118343166411e-06 0)
(-4.11632664262511e-08 -4.53075034332169e-06 0)
(-4.06928258730988e-08 -4.53031799273411e-06 0)
(-4.00655279346328e-08 -4.52988796161064e-06 0)
(-3.9292672862148e-08 -4.52946167007227e-06 0)
(-3.83855976992863e-08 -4.52904038763121e-06 0)
(-3.7355495008118e-08 -4.52862524438968e-06 0)
(-3.62134198329896e-08 -4.52821723654233e-06 0)
(-3.4970148069751e-08 -4.52781723739526e-06 0)
(-3.36362853932723e-08 -4.52742599803382e-06 0)
(-3.2222160491649e-08 -4.52704416056106e-06 0)
(-3.07379919572147e-08 -4.52667225688476e-06 0)
(-2.9193747287936e-08 -4.52631072936113e-06 0)
(-2.75992439570358e-08 -4.52595993338002e-06 0)
(-2.59638102637407e-08 -4.52562017400554e-06 0)
(-2.42960824012002e-08 -4.52529172352711e-06 0)
(-2.26031631239818e-08 -4.52497489260342e-06 0)
(-2.08897156221093e-08 -4.52467008918802e-06 0)
(-1.91562329235195e-08 -4.52437795349868e-06 0)
(-1.73974245169668e-08 -4.52409946009247e-06 0)
(-1.56011693794849e-08 -4.52383602485209e-06 0)
(-1.37518841831277e-08 -4.52358938275212e-06 0)
(-1.18439447888555e-08 -4.5233612008219e-06 0)
(-9.91251696467953e-09 -4.52315222010304e-06 0)
(-8.06486471919046e-09 -4.52296134353174e-06 0)
(-6.39849457602413e-09 -4.5227822101459e-06 0)
(-4.61145948196478e-09 -4.52259218673212e-06 0)
(-2.00145449487298e-09 -5.01926373124222e-06 0)
(-1.73405669957323e-10 -5.03981270335503e-06 0)
(-1.94859146704934e-09 -4.54108482787232e-06 0)
(-5.34522941524399e-09 -4.54123248031176e-06 0)
(-8.73785024651799e-09 -4.5413055821721e-06 0)
(-1.19201668608529e-08 -4.54132942785788e-06 0)
(-1.49811941465947e-08 -4.54131496448995e-06 0)
(-1.79691441876293e-08 -4.54126108918142e-06 0)
(-2.08755016394456e-08 -4.54116337601157e-06 0)
(-2.36678066607905e-08 -4.54101867674934e-06 0)
(-2.631047006221e-08 -4.54082634849776e-06 0)
(-2.87737572591674e-08 -4.54058796649714e-06 0)
(-3.10355434978555e-08 -4.5403066310272e-06 0)
(-3.3081032906361e-08 -4.53998632608579e-06 0)
(-3.49011143100581e-08 -4.53963142562584e-06 0)
(-3.64912900721694e-08 -4.53924639091789e-06 0)
(-3.78503495220396e-08 -4.53883554828095e-06 0)
(-3.89797961512318e-08 -4.5384030114953e-06 0)
(-3.98831008903766e-08 -4.53795259220268e-06 0)
(-4.05654839614151e-08 -4.53748782515178e-06 0)
(-4.103350415456e-08 -4.53701192435863e-06 0)
(-4.1294957917815e-08 -4.53652784547558e-06 0)
(-4.13586129540465e-08 -4.53603825010454e-06 0)
(-4.12340935366525e-08 -4.53554557853508e-06 0)
(-4.09316728831226e-08 -4.53505201140463e-06 0)
(-4.04621097960302e-08 -4.53455954438355e-06 0)
(-3.98364882427263e-08 -4.53406994588101e-06 0)
(-3.90660252247098e-08 -4.53358483081382e-06 0)
(-3.81619803816153e-08 -4.53310561448633e-06 0)
(-3.71354736391679e-08 -4.53263358357054e-06 0)
(-3.59974915846351e-08 -4.5321698460795e-06 0)
(-3.4758744961474e-08 -4.5317153986047e-06 0)
(-3.34297774538179e-08 -4.53127107316207e-06 0)
(-3.20208588207653e-08 -4.53083760196487e-06 0)
(-3.05421528576715e-08 -4.53041556424701e-06 0)
(-2.90035778135533e-08 -4.53000545318745e-06 0)
(-2.74149107616064e-08 -4.52960762913681e-06 0)
(-2.57854529674554e-08 -4.52922239813507e-06 0)
(-2.41238354271534e-08 -4.52884998536483e-06 0)
(-2.24371897215932e-08 -4.52849064843495e-06 0)
(-2.07302595754005e-08 -4.52814470622696e-06 0)
(-1.90036857662383e-08 -4.52781273134858e-06 0)
(-1.72523909027533e-08 -4.52749565857333e-06 0)
(-1.54644823252184e-08 -4.52719499113151e-06 0)
(-1.36244905308257e-08 -4.5269127312491e-06 0)
(-1.17265529596058e-08 -4.52665105465005e-06 0)
(-9.80497376896674e-09 -4.52641114030631e-06 0)
(-7.96442480000507e-09 -4.526191064415e-06 0)
(-6.29874149279788e-09 -4.52598173335748e-06 0)
(-4.51018083313975e-09 -4.52576445327088e-06 0)
(-1.94533876650303e-09 -5.02279425641815e-06 0)
(-2.27241552243028e-10 -5.04524278450468e-06 0)
(-2.03617758104741e-09 -4.54598488597013e-06 0)
(-5.40326340912418e-09 -4.54614118837597e-06 0)
(-8.76292962094723e-09 -4.54621998316955e-06 0)
(-1.19221769114753e-08 -4.54624486793369e-06 0)
(-1.49623557985009e-08 -4.54622595675225e-06 0)
(-1.79279662373239e-08 -4.54616173387945e-06 0)
(-2.08100908152465e-08 -4.54604767240834e-06 0)
(-2.3577267184444e-08 -4.54588074579399e-06 0)
(-2.61951213498091e-08 -4.5456605833003e-06 0)
(-2.8634879724043e-08 -4.54538916276407e-06 0)
(-3.08750361927565e-08 -4.54507005821253e-06 0)
(-3.29011205381718e-08 -4.54470778313801e-06 0)
(-3.47041414150151e-08 -4.54430723894641e-06 0)
(-3.62795847671403e-08 -4.54387341827648e-06 0)
(-3.76261459915645e-08 -4.54341113841363e-06 0)
(-3.87451912445595e-08 -4.54292498884102e-06 0)
(-3.96400377022129e-08 -4.5424192043278e-06 0)
(-4.03157470600311e-08 -4.54189772518301e-06 0)
(-4.07787246283265e-08 -4.54136411751131e-06 0)
(-4.10366204134603e-08 -4.54082167483551e-06 0)
(-4.1098065507956e-08 -4.54027334600517e-06 0)
(-4.09725566958964e-08 -4.53972184885629e-06 0)
(-4.06702493504984e-08 -4.53916959498523e-06 0)
(-4.02017931112832e-08 -4.53861880576567e-06 0)
(-3.95781711497117e-08 -4.53807143321901e-06 0)
(-3.8810507164866e-08 -4.53752927459723e-06 0)
(-3.79099740777162e-08 -4.53699388988453e-06 0)
(-3.68876108047196e-08 -4.53646671210292e-06 0)
(-3.57543273500473e-08 -4.53594896146283e-06 0)
(-3.45207616110237e-08 -4.53544174937989e-06 0)
(-3.31973870734006e-08 -4.53494598992333e-06 0)
(-3.17944060340349e-08 -4.53446249783805e-06 0)
(-3.03219175684602e-08 -4.53399190034842e-06 0)
(-2.87897797328576e-08 -4.53353473338269e-06 0)
(-2.72077164307928e-08 -4.53309136088173e-06 0)
(-2.55849883777606e-08 -4.53266207984211e-06 0)
(-2.39302075511979e-08 -4.53224706391863e-06 0)
(-2.225052355496e-08 -4.5318465056392e-06 0)
(-2.055075707887e-08 -4.5314606285396e-06 0)
(-1.88317090967854e-08 -4.53108992603915e-06 0)
(-1.70885544085068e-08 -4.53073528812582e-06 0)
(-1.53097057173977e-08 -4.53039829759077e-06 0)
(-1.34799159423802e-08 -4.53008122559929e-06 0)
(-1.15931493174579e-08 -4.5297867769371e-06 0)
(-9.68252184873536e-09 -4.5295167165862e-06 0)
(-7.85016129736942e-09 -4.52926893418931e-06 0)
(-6.18519069906062e-09 -4.52903244148348e-06 0)
(-4.40091818072376e-09 -4.52879094575801e-06 0)
(-1.88835528732737e-09 -5.02614282901637e-06 0)
(-2.83342812580249e-10 -5.05044926866313e-06 0)
(-2.12579591584067e-09 -4.55068657041131e-06 0)
(-5.46277733526865e-09 -4.55085136100597e-06 0)
(-8.78968996224935e-09 -4.55093410740739e-06 0)
(-1.19231536471445e-08 -4.55095847432816e-06 0)
(-1.49396271190813e-08 -4.55093404252857e-06 0)
(-1.78800020156528e-08 -4.55085884326316e-06 0)
(-2.07350075966995e-08 -4.55072817190339e-06 0)
(-2.34742621068247e-08 -4.55053907294244e-06 0)
(-2.60646785472407e-08 -4.55029142373854e-06 0)
(-2.84784947152338e-08 -4.54998758243846e-06 0)
(-3.06948536848395e-08 -4.5496315776786e-06 0)
(-3.26996232732993e-08 -4.54922842505403e-06 0)
(-3.44839318792598e-08 -4.54878353026578e-06 0)
(-3.60432398058461e-08 -4.54830238784203e-06 0)
(-3.73761348043591e-08 -4.5477902840742e-06 0)
(-3.84838291082639e-08 -4.54725225684037e-06 0)
(-3.93694690613418e-08 -4.54669294563974e-06 0)
(-4.00379405532259e-08 -4.54611667246926e-06 0)
(-4.04954789808979e-08 -4.54552734095361e-06 0)
(-4.07495721647213e-08 -4.54492856208359e-06 0)
(-4.08086999644649e-08 -4.54432356088967e-06 0)
(-4.06822180267704e-08 -4.54371531560246e-06 0)
(-4.03801513377837e-08 -4.54310646082072e-06 0)
(-3.99130289129092e-08 -4.54249942946826e-06 0)
(-3.92917226584813e-08 -4.54189635192888e-06 0)
(-3.85272535574283e-08 -4.54129919634032e-06 0)
(-3.76306991344678e-08 -4.54070966437718e-06 0)
(-3.66130094282784e-08 -4.54012932628596e-06 0)
(-3.54850102230652e-08 -4.53955951321606e-06 0)
(-3.42572591916329e-08 -4.5390014440805e-06 0)
(-3.29401516828887e-08 -4.53845611476368e-06 0)
(-3.154381403335e-08 -4.53792441623341e-06 0)
(-3.00782706299879e-08 -4.53740702348697e-06 0)
(-2.85533080802232e-08 -4.53690450882048e-06 0)
(-2.69785839912486e-08 -4.53641723839384e-06 0)
(-2.53633044858674e-08 -4.53594549271113e-06 0)
(-2.3716048325779e-08 -4.53548939081024e-06 0)
(-2.20439720319758e-08 -4.53504905182893e-06 0)
(-2.03519697752265e-08 -4.53462460033586e-06 0)
(-1.86410155593531e-08 -4.53421644358093e-06 0)
(-1.69065766785829e-08 -4.53382542596347e-06 0)
(-1.51374510619738e-08 -4.53345320988149e-06 0)
(-1.33187302039966e-08 -4.53310234804772e-06 0)
(-1.14442984530138e-08 -4.53277610297591e-06 0)
(-9.54605239526974e-09 -4.53247692253519e-06 0)
(-7.72228725660127e-09 -4.53220280399142e-06 0)
(-6.05974753303666e-09 -4.53194174749122e-06 0)
(-4.28277870394543e-09 -4.53167764861957e-06 0)
(-1.82696587576543e-09 -5.02933164625448e-06 0)
(-3.43076217727424e-10 -5.05541303541672e-06 0)
(-2.22294034156718e-09 -4.55516976418327e-06 0)
(-5.52703179808679e-09 -4.55534189608271e-06 0)
(-8.81648627104534e-09 -4.55542736106322e-06 0)
(-1.19221444711296e-08 -4.55544997996601e-06 0)
(-1.4912540265922e-08 -4.5554191229075e-06 0)
(-1.78250309248334e-08 -4.55533245346782e-06 0)
(-2.06502056549064e-08 -4.55518507224813e-06 0)
(-2.33588931019427e-08 -4.55497406052825e-06 0)
(-2.59193760978298e-08 -4.55469951648654e-06 0)
(-2.8304956694086e-08 -4.5543641501701e-06 0)
(-3.04954575005551e-08 -4.55397241792953e-06 0)
(-3.24770968317598e-08 -4.55352980528658e-06 0)
(-3.42411228089819e-08 -4.55304219317988e-06 0)
(-3.57829616713902e-08 -4.55251554560095e-06 0)
(-3.71010804907773e-08 -4.55195559119899e-06 0)
(-3.81965220272659e-08 -4.55136778713217e-06 0)
(-3.90722455166434e-08 -4.5507571553134e-06 0)
(-3.97329447170271e-08 -4.55012837453107e-06 0)
(-4.01846694355156e-08 -4.54948566801975e-06 0)
(-4.04347303814726e-08 -4.54883294340671e-06 0)
(-4.04914422673959e-08 -4.5481736879884e-06 0)
(-4.03640066614518e-08 -4.54751112327973e-06 0)
(-4.00623062833261e-08 -4.54684809650032e-06 0)
(-3.95967386653788e-08 -4.54618723837018e-06 0)
(-3.89780545857233e-08 -4.54553085031476e-06 0)
(-3.82171633888811e-08 -4.54488106054291e-06 0)
(-3.73250390505169e-08 -4.54423970763887e-06 0)
(-3.63125352242147e-08 -4.54360849071839e-06 0)
(-3.51903862472911e-08 -4.54298884905046e-06 0)
(-3.39690623847509e-08 -4.54238210258847e-06 0)
(-3.26588731499104e-08 -4.54178932750526e-06 0)
(-3.12698603957591e-08 -4.54121148574563e-06 0)
(-2.98119638619647e-08 -4.54064929904743e-06 0)
(-2.82948871862973e-08 -4.5401033712282e-06 0)
(-2.67282083761706e-08 -4.5395740693402e-06 0)
(-2.51210645860414e-08 -4.53906165238162e-06 0)
(-2.34819871101429e-08 -4.53856618300254e-06 0)
(-2.18181283177666e-08 -4.53808770226516e-06 0)
(-2.01344529548788e-08 -4.53762623475178e-06 0)
(-1.84321219105641e-08 -4.53718209897435e-06 0)
(-1.67069375587075e-08 -4.5367560959883e-06 0)
(-1.49481667594963e-08 -4.53634997167542e-06 0)
(-1.31413624895875e-08 -4.53596657318911e-06 0)
(-1.12804365611595e-08 -4.53560974073408e-06 0)
(-9.39587235655054e-09 -4.53528265306193e-06 0)
(-7.58257377657712e-09 -4.53498362691967e-06 0)
(-5.92261305107508e-09 -4.53469964009507e-06 0)
(-4.15542546900636e-09 -4.53441474493638e-06 0)
(-1.76244769771316e-09 -5.03235323004665e-06 0)
(-4.05181102693011e-10 -5.06011615269487e-06 0)
(-2.32163870547019e-09 -4.55941760674989e-06 0)
(-5.59157575802283e-09 -4.55959653451722e-06 0)
(-8.84373190196639e-09 -4.55968355478982e-06 0)
(-1.19190345692193e-08 -4.55970337013525e-06 0)
(-1.48808638700715e-08 -4.55966534829433e-06 0)
(-1.77629766860671e-08 -4.55956686419297e-06 0)
(-2.05558111269091e-08 -4.55940283310311e-06 0)
(-2.32314842259963e-08 -4.55917035382037e-06 0)
(-2.57597233681534e-08 -4.55886971921374e-06 0)
(-2.81149454366869e-08 -4.55850396010751e-06 0)
(-3.027768124311e-08 -4.55807792832461e-06 0)
(-3.22345108984991e-08 -4.55759754368083e-06 0)
(-3.39768020364193e-08 -4.55706912871813e-06 0)
(-3.54999388154462e-08 -4.55649908221701e-06 0)
(-3.68022555700048e-08 -4.55589354490369e-06 0)
(-3.78846111654425e-08 -4.55525836274744e-06 0)
(-3.8749762760779e-08 -4.55459891477591e-06 0)
(-3.94021969063951e-08 -4.55392021093006e-06 0)
(-3.98477634187791e-08 -4.55322677364355e-06 0)
(-4.00935821490716e-08 -4.55252278605866e-06 0)
(-4.01477899008661e-08 -4.55181198171071e-06 0)
(-4.00194222827247e-08 -4.55109780833921e-06 0)
(-3.97182088829792e-08 -4.55038331361895e-06 0)
(-3.92544058200721e-08 -4.54967131260365e-06 0)
(-3.86386337448288e-08 -4.54896426891807e-06 0)
(-3.78816822194693e-08 -4.54826446047023e-06 0)
(-3.6994414222283e-08 -4.54757385665088e-06 0)
(-3.59875801341438e-08 -4.54689427760817e-06 0)
(-3.48718161581087e-08 -4.54622726675571e-06 0)
(-3.36574984191248e-08 -4.54557423920559e-06 0)
(-3.23548432615259e-08 -4.54493634895131e-06 0)
(-3.09737998043651e-08 -4.54431462438952e-06 0)
(-2.95242133711744e-08 -4.5437098324187e-06 0)
(-2.80156932266056e-08 -4.54312260464884e-06 0)
(-2.6457724567989e-08 -4.54255330786374e-06 0)
(-2.48593613170151e-08 -4.54200217641143e-06 0)
(-2.32290732675726e-08 -4.54146921600777e-06 0)
(-2.15739979066529e-08 -4.54095438781165e-06 0)
(-1.98991681299553e-08 -4.54045761770899e-06 0)
(-1.82059461776963e-08 -4.53997913635107e-06 0)
(-1.649051302905e-08 -4.53951970589682e-06 0)
(-1.47426896623207e-08 -4.53908116069871e-06 0)
(-1.29486147333386e-08 -4.53866665110937e-06 0)
(-1.11023383894563e-08 -4.53828060163572e-06 0)
(-9.23299548809542e-09 -4.53792693124954e-06 0)
(-7.43078077331215e-09 -4.53760430798406e-06 0)
(-5.77530654699449e-09 -4.53729912634213e-06 0)
(-4.01956903743529e-09 -4.53699452528897e-06 0)
(-1.69293537509266e-09 -5.0352006067145e-06 0)
(-4.70637358938648e-10 -5.06453805747051e-06 0)
(-2.42733739311027e-09 -4.56341098642248e-06 0)
(-5.66000581539746e-09 -4.56359539894756e-06 0)
(-8.8699040797583e-09 -4.56368308610704e-06 0)
(-1.19130412233454e-08 -4.56369929428228e-06 0)
(-1.48442872947693e-08 -4.56365356069343e-06 0)
(-1.76937733292463e-08 -4.56354308729023e-06 0)
(-2.04519504687165e-08 -4.56336264074851e-06 0)
(-2.30923361573438e-08 -4.56310933242988e-06 0)
(-2.55861792413702e-08 -4.56278362735901e-06 0)
(-2.79090612494729e-08 -4.56238884523464e-06 0)
(-3.00422492871255e-08 -4.56193019773203e-06 0)
(-3.19726970285131e-08 -4.5614140004736e-06 0)
(-3.36918920771028e-08 -4.56084698033591e-06 0)