/*--------------------------------*- C++ -*----------------------------------*\
  =========                 |
  \\      /  F ield         | OpenFOAM: The Open Source CFD Toolbox
   \\    /   O peration     | Website:  https://openfoam.org
    \\  /    A nd           | Version:  10
     \\/     M anipulation  |
\*---------------------------------------------------------------------------*/
FoamFile
{
    format      ascii;
    class       volScalarField;
    location    "0.2";
    object      wallHeatFlux;
}
// * * * * * * * * * * * * * * * * * * * * * * * * * * * * * * * * * * * * * //

dimensions      [1 0 -3 0 0 0 0];

internalField   uniform 0;

boundaryField
{
    back
    {
        type            calculated;
        value           uniform 0;
    }
    bottom
    {
        type            calculated;
        value           nonuniform List<scalar> 
50
(
2109.66333529625
2135.44441063309
2135.99920925462
2136.01146642194
2136.0117405065
2136.01174673088
2136.01174687506
2136.01174687849
2136.01174687857
2136.0117468786
2136.01174687854
2136.01174687857
2136.01174687864
2136.01174687857
2136.01174687864
2136.01174687857
2136.0117468786
2136.0117468786
2136.01174687857
2136.0117468786
2136.01174687864
2136.0117468786
2136.01174687857
2136.01174687864
2136.01174687857
2136.01174687857
2136.0117468786
2136.01174687861
2136.0117468786
2136.01174687861
2136.0117468786
2136.01174687857
2136.0117468786
2136.01174687861
2136.01174687861
2136.01174687857
2136.0117468786
2136.01174687861
2136.01174687861
2136.01174687861
2136.01174687857
2136.01174687854
2136.01174687848
2136.01174687383
2136.01174669178
2136.01173932712
2136.01143183481
2135.99824446102
2135.42017594565
2109.64442869629
)
;
    }
    left
    {
        type            calculated;
        value           uniform 0;
    }
    front
    {
        type            calculated;
        value           uniform 0;
    }
    right
    {
        type            calculated;
        value           uniform 0;
    }
    top
    {
        type            calculated;
        value           uniform 0;
    }
}


// ************************************************************************* //
