/*--------------------------------*- C++ -*----------------------------------*\
  =========                 |
  \\      /  F ield         | OpenFOAM: The Open Source CFD Toolbox
   \\    /   O peration     | Website:  https://openfoam.org
    \\  /    A nd           | Version:  10
     \\/     M anipulation  |
\*---------------------------------------------------------------------------*/
FoamFile
{
    format      ascii;
    class       volScalarField;
    location    "2.6";
    object      alphat;
}
// * * * * * * * * * * * * * * * * * * * * * * * * * * * * * * * * * * * * * //

dimensions      [1 -1 -1 0 0 0 0];

internalField   nonuniform List<scalar> 
2500
(
3.45317397161047e-14
6.38664540901049e-13
2.55916093659347e-12
4.01635186340959e-12
4.86947294493309e-12
5.28332551879133e-12
5.45500070415935e-12
5.51737182611771e-12
5.53760483092826e-12
5.54355721860376e-12
5.54516448819709e-12
5.54556548375423e-12
5.54565691164771e-12
5.54567406779325e-12
5.54567490270562e-12
5.54567292379794e-12
5.54567069206891e-12
5.54566866150718e-12
5.54566687453833e-12
5.54566529037838e-12
5.54566389214447e-12
5.54566266207722e-12
5.54566158587292e-12
5.54566064779688e-12
5.54565985697507e-12
5.54565921462257e-12
5.54565871199724e-12
5.54565837477748e-12
5.54565829438114e-12
5.54565844953427e-12
5.54565855854325e-12
5.54565878938737e-12
5.54565929645413e-12
5.54565999133782e-12
5.54566068801144e-12
5.5456604144552e-12
5.54565352774839e-12
5.54561717209078e-12
5.5454645263608e-12
5.54487154003696e-12
5.54271485723613e-12
5.53538373160249e-12
5.51226528060085e-12
5.44535755543709e-12
5.27007617479085e-12
4.86157853640185e-12
4.03299313071865e-12
2.6115763619794e-12
6.7410666106446e-13
3.84782122755968e-14
3.28066965121373e-12
1.61651264015122e-10
6.65707005515556e-10
1.05203143348775e-09
1.2831057378097e-09
1.39788457136647e-09
1.44663035290072e-09
1.46474108441025e-09
1.47073982690101e-09
1.47253879194295e-09
1.47303320920076e-09
1.47315865886327e-09
1.47318784152615e-09
1.4731935848573e-09
1.47319404941962e-09
1.47319356020937e-09
1.47319297087562e-09
1.4731924269155e-09
1.47319194668485e-09
1.47319152373986e-09
1.47319115260809e-09
1.47319082853354e-09
1.47319054683154e-09
1.47319030204805e-09
1.47319009624453e-09
1.47318993160285e-09
1.47318980515878e-09
1.47318972404874e-09
1.4731897210126e-09
1.47318977604401e-09
1.47318980021506e-09
1.47318987582664e-09
1.47319001837452e-09
1.47319021069237e-09
1.47319039382207e-09
1.47319024717828e-09
1.47318797208255e-09
1.47317646207772e-09
1.47312902037303e-09
1.47294716489242e-09
1.47229466735437e-09
1.47010893670308e-09
1.46332631861502e-09
1.44404007546547e-09
1.39447801987883e-09
1.2813324436306e-09
1.05669759337721e-09
6.79153418838998e-10
1.70268478468125e-10
3.62898887247133e-12
1.13327421304305e-11
2.83715262899628e-09
9.08782162459453e-07
1.42824011903483e-06
1.73836390093575e-06
1.89392973769851e-06
1.96102255149027e-06
1.98639502430355e-06
1.99495367561145e-06
1.99756682081928e-06
1.99829765896314e-06
1.998486374916e-06
1.99853121706623e-06
1.99854046509727e-06
1.99854150373769e-06
1.99854098525618e-06
1.9985402716994e-06
1.99853959811801e-06
1.99853900021104e-06
1.99853847305841e-06
1.99853800977794e-06
1.99853760445589e-06
1.99853725204325e-06
1.99853694693649e-06
1.99853668897325e-06
1.9985364807121e-06
1.99853632116171e-06
1.99853621850632e-06
1.99853621844348e-06
1.99853628302016e-06
1.99853630604077e-06
1.99853639275007e-06
1.99853656125016e-06
1.99853678803055e-06
1.99853698337379e-06
1.9985366510604e-06
1.99853311176773e-06
1.99851603289132e-06
1.99844660032646e-06
1.99818302817271e-06
1.99724619484537e-06
1.9941395220399e-06
1.98460517927619e-06
1.95781666200633e-06
1.88981705563559e-06
1.73632219744128e-06
1.43387695766826e-06
9.2479606232357e-07
2.96708309503555e-09
1.22694411727464e-11
1.95584431664825e-11
4.93834363570759e-09
1.56954000482111e-06
2.44194405440496e-06
2.95755767450168e-06
3.21572891265375e-06
3.32742851856641e-06
3.36992596564941e-06
3.38437134640628e-06
3.38882001196695e-06
3.39007585564279e-06
3.39040346312994e-06
3.39048232458736e-06
3.39049902730752e-06
3.39050121720711e-06
3.39050052014877e-06
3.39049945099514e-06
3.39049842144399e-06
3.3904975008162e-06
3.39049668581557e-06
3.39049596603672e-06
3.39049533359437e-06
3.39049478159057e-06
3.39049430300039e-06
3.39049389570773e-06
3.39049356261863e-06
3.39049330442464e-06
3.39049312986058e-06
3.39049310517351e-06
3.39049318473527e-06
3.39049324304465e-06
3.39049332865144e-06
3.3904935617399e-06
3.39049388482779e-06
3.39049415679035e-06
3.39049355359519e-06
3.3904876963668e-06
3.39045998850842e-06
3.39034692501986e-06
3.38991593063351e-06
3.38837743983506e-06
3.38325581347531e-06
3.36748673830052e-06
3.32306716262358e-06
3.21007262398225e-06
2.95437643474699e-06
2.44831499239681e-06
1.58898874650774e-06
5.09920936236918e-09
2.07094889165567e-11
2.68397530959243e-11
6.79497455614773e-09
2.13940708464848e-06
3.30312976164044e-06
3.98631505566108e-06
4.32814831667905e-06
4.47648983972841e-06
4.53322570346925e-06
4.55263992615625e-06
4.55866462643947e-06
4.56037976031525e-06
4.56083141311021e-06
4.56094145273178e-06
4.56096534353442e-06
4.5609689007285e-06
4.56096825817075e-06
4.56096701900929e-06
4.56096579249171e-06
4.56096468598854e-06
4.56096370203519e-06
4.56096282854746e-06
4.56096205592569e-06
4.56096137773475e-06
4.56096078697511e-06
4.56096028115565e-06
4.56095986193121e-06
4.56095953038852e-06
4.56095929367179e-06
4.56095919856282e-06
4.56095924562574e-06
4.56095932891133e-06
4.56095941963583e-06
4.56095966241055e-06
4.56096000937423e-06
4.56096031046511e-06
4.56095939156409e-06
4.56095159987344e-06
4.56091572718365e-06
4.56076885975881e-06
4.56020683518395e-06
4.55819226529002e-06
4.55145991913013e-06
4.53066324872813e-06
4.4719265709899e-06
4.32219723932408e-06
3.98267917100901e-06
3.3086778020684e-06
2.15765379712929e-06
6.95231044448468e-09
2.80022705992922e-11
3.28177217909099e-11
8.33266013215258e-09
2.6056015766393e-06
4.00050641324029e-06
4.81591212886023e-06
5.22397704244023e-06
5.40158667960705e-06
5.46983913346055e-06
5.49333284581709e-06
5.50067320753583e-06
5.50277874102686e-06
5.50333795646999e-06
5.50347570678631e-06
5.5035063043017e-06
5.50351135179184e-06
5.50351094570325e-06
5.50350969292856e-06
5.50350840519097e-06
5.50350722972663e-06
5.50350617764881e-06
5.50350523820032e-06
5.50350440189178e-06
5.50350366201576e-06
5.50350301300862e-06
5.50350245300412e-06
5.50350198194723e-06
5.50350160099644e-06
5.50350131556959e-06
5.50350114971151e-06
5.50350115263693e-06
5.50350120891564e-06
5.50350129348372e-06
5.50350150412729e-06
5.50350180940404e-06
5.50350205009511e-06
5.50350071689458e-06
5.50349141987016e-06
5.50344934844035e-06
5.50327676828705e-06
5.50261436774056e-06
5.50023187014618e-06
5.49224439935661e-06
5.46750313693218e-06
5.39747587073021e-06
5.21867967723566e-06
4.81269735655499e-06
4.00524377975372e-06
2.62126314898266e-06
8.47368965985241e-09
3.39102711270847e-11
3.74442300413061e-11
9.53750061069824e-09
2.96944479913226e-06
4.54142339558864e-06
5.45800627664167e-06
5.91704798153924e-06
6.11741208172279e-06
6.19473403228268e-06
6.22148834579073e-06
6.22989748834276e-06
6.2323257556814e-06
6.23297561281046e-06
6.23313727515216e-06
6.23317391602959e-06
6.23318045614228e-06
6.23318040353901e-06
6.23317925030946e-06
6.23317800058042e-06
6.23317684223593e-06
6.23317579657932e-06
6.23317485622446e-06
6.23317401282975e-06
6.23317326032117e-06
6.23317259448455e-06
6.23317201368389e-06
6.23317151741196e-06
6.23317110672869e-06
6.23317078569911e-06
6.23317056750138e-06
6.23317048827703e-06
6.23317050066721e-06
6.23317058958424e-06
6.23317072566491e-06
6.23317093983314e-06
6.23317104070628e-06
6.23316930164698e-06
6.23315883234468e-06
6.23311213186236e-06
6.23292046065721e-06
6.23218314108478e-06
6.22952393293553e-06
6.22058570907816e-06
6.19283899942575e-06
6.11417411374907e-06
5.91309068726229e-06
5.45610752482565e-06
4.54621902531433e-06
2.98301693114737e-06
9.66229718300149e-09
3.84561775267936e-11
4.08438311544702e-11
1.04354175464917e-08
3.24122843434e-06
4.94428019807135e-06
5.93596154538084e-06
6.43313533591895e-06
6.65070863887356e-06
6.7349811793678e-06
6.76427162219167e-06
6.77352549302743e-06
6.77621323233228e-06
6.77693732924182e-06
6.77711901897664e-06
6.77716090283227e-06
6.77716885015855e-06
6.7771692191396e-06
6.77716823428655e-06
6.77716708437497e-06
6.77716599753439e-06
6.77716500599644e-06
6.77716410663598e-06
6.77716329300496e-06
6.77716256029474e-06
6.77716190537272e-06
6.77716132687446e-06
6.77716082436812e-06
6.77716039873757e-06
6.77716005295037e-06
6.77715979441625e-06
6.77715963995515e-06
6.77715959274827e-06
6.77715962683938e-06
6.77715972426574e-06
6.77715981396789e-06
6.77715973198109e-06
6.77715762734434e-06
6.77714627963232e-06
6.77709619103887e-06
6.77689072725254e-06
6.77609908190273e-06
6.7732378828965e-06
6.76360119144597e-06
6.7336352930168e-06
6.64857082473924e-06
6.43094830477243e-06
5.93611515026785e-06
4.95025048393375e-06
3.25401120699134e-06
1.05500688773765e-08
4.17984224304545e-11
4.32267070168315e-11
1.10743340828091e-08
3.43597778012778e-06
5.23282933236358e-06
6.27855792635139e-06
6.80343241214576e-06
7.03365605513214e-06
7.12310801293379e-06
7.15431676014157e-06
7.164219840142e-06
7.16711038096825e-06
7.16789356193313e-06
7.16809152883866e-06
7.16813780531096e-06
7.16814701558648e-06
7.16814781809216e-06
7.1681470301532e-06
7.16814600971532e-06
7.16814502161076e-06
7.16814410878471e-06
7.16814327255222e-06
7.16814250869831e-06
7.16814181389047e-06
7.16814118593996e-06
7.16814062387091e-06
7.1681401274632e-06
7.16813969744872e-06
7.16813933595919e-06
7.1681390474959e-06
7.16813884035123e-06
7.16813871918067e-06
7.16813868664739e-06
7.16813869169926e-06
7.16813869613484e-06
7.16813840955663e-06
7.16813599986731e-06
7.16812402974129e-06
7.16807152992804e-06
7.16785639262539e-06
7.1670265594976e-06
7.16402254085245e-06
7.15388915040878e-06
7.1223379749693e-06
7.0326885563082e-06
6.80320174679528e-06
6.28122187856884e-06
5.24091371877029e-06
3.44932566466371e-06
1.11861351477916e-08
4.41558592035766e-11
4.48259511853744e-11
1.15098222199966e-08
3.57011941930767e-06
5.43189261126081e-06
6.51532851642868e-06
7.05973613571395e-06
7.29899321660599e-06
7.39219602922763e-06
7.42481515843079e-06
7.4352032324212e-06
7.43824783016965e-06
7.43907669696716e-06
7.43928750571341e-06
7.4393373412484e-06
7.43934763064647e-06
7.43934883791077e-06
7.43934824398907e-06
7.43934735859818e-06
7.43934647616826e-06
7.43934564934444e-06
7.43934488357784e-06
7.43934417691695e-06
7.43934352753119e-06
7.43934293394357e-06
7.43934239564571e-06
7.43934191263804e-06
7.43934148554761e-06
7.43934111588392e-06
7.43934080648485e-06
7.43934056184226e-06
7.43934038515745e-06
7.4393402770546e-06
7.43934021267192e-06
7.43934012376134e-06
7.43933966314594e-06
7.43933703866028e-06
7.43932458909361e-06
7.43927042056458e-06
7.43904870714677e-06
7.43819288786165e-06
7.43509118176528e-06
7.42461627748542e-06
7.39197062620815e-06
7.29914735906755e-06
7.06143833762692e-06
6.52064779019212e-06
5.442642899762e-06
3.5850295356086e-06
1.16245921982619e-08
4.57563409097519e-11
4.58571666602611e-11
1.17950371024088e-08
3.6591216401325e-06
5.56438372655495e-06
6.67332847235487e-06
7.23110653296389e-06
7.47662960311247e-06
7.57247204321627e-06
7.60609907080755e-06
7.6168393413388e-06
7.61999769267142e-06
7.62086088793919e-06
7.62108153406327e-06
7.62113415548723e-06
7.62114533178631e-06
7.62114689969036e-06
7.62114647185604e-06
7.6211457113912e-06
7.62114492844993e-06
7.6211441836656e-06
7.62114348604394e-06
7.62114283554754e-06
7.62114223143328e-06
7.62114167315382e-06
7.62114116065274e-06
7.62114069414189e-06
7.62114027419118e-06
7.62113990186619e-06
7.62113957897224e-06
7.62113930808373e-06
7.62113909117884e-06
7.62113892764478e-06
7.6211387997225e-06
7.62113863013263e-06
7.6211380448086e-06
7.62113525110095e-06
7.62112245223714e-06
7.62106716288213e-06
7.62084111943068e-06
7.61996819134784e-06
7.61680187632207e-06
7.60610001127743e-06
7.57272420715194e-06
7.47777824595903e-06
7.23456357949923e-06
6.68117587043288e-06
5.57793556010749e-06
3.67610585823284e-06
1.19161904901221e-08
4.68052821751707e-11
4.64980620254541e-11
1.19750555378819e-08
3.71613007022117e-06
5.64961595945365e-06
6.7753046870708e-06
7.3419711665759e-06
7.59171789380374e-06
7.6893661867101e-06
7.72369357734298e-06
7.73468256569398e-06
7.73792259710218e-06
7.73881087092144e-06
7.73903883814426e-06
7.73909357399574e-06
7.73910544674258e-06
7.73910730074447e-06
7.73910702467873e-06
7.73910637128586e-06
7.73910567436115e-06
7.73910500122958e-06
7.73910436379413e-06
7.73910376360834e-06
7.73910320087543e-06
7.73910267571055e-06
7.73910218843626e-06
7.73910173944051e-06
7.73910132927079e-06
7.7391009586917e-06
7.73910062884498e-06
7.73910034121425e-06
7.73910009685371e-06
7.73909989421944e-06
7.73909971709148e-06
7.739099484841e-06
7.73909881058967e-06
7.73909589212004e-06
7.73908285056048e-06
7.73902683175282e-06
7.73879802733087e-06
7.73791419973736e-06
7.7347065548287e-06
7.7238588459487e-06
7.6900121221193e-06
7.59369366770636e-06
7.3469142647087e-06
6.7853662139187e-06
5.66577566978962e-06
3.73527159760298e-06
1.21037884544283e-08
4.74707505531772e-11
4.68831115505004e-11
1.20848634304638e-08
3.75146029990352e-06
5.70271537071553e-06
6.83907912523031e-06
7.41148916123845e-06
7.66400465801701e-06
7.7628548484223e-06
7.79765578952681e-06
7.80881570522618e-06
7.81211281235171e-06
7.81301891304446e-06
7.81325217941923e-06
7.81330847734714e-06
7.81332087274261e-06
7.81332295170844e-06
7.81332279934404e-06
7.81332223285599e-06
7.81332160645277e-06
7.81332099270847e-06
7.81332040576262e-06
7.81331984839775e-06
7.8133193215593e-06
7.81331882584001e-06
7.81331836185469e-06
7.8133179301286e-06
7.8133175312049e-06
7.81331716564974e-06
7.81331683418033e-06
7.81331653761239e-06
7.81331627632908e-06
7.81331604808236e-06
7.81331583665026e-06
7.81331555980365e-06
7.81331482435634e-06
7.81331181927562e-06
7.8132986163494e-06
7.81324213792707e-06
7.81301162814903e-06
7.81212107708163e-06
7.80888783978649e-06
7.79794942684104e-06
7.76380876437233e-06
7.66663139918639e-06
7.41761750306743e-06
6.85094932453876e-06
5.7210915654494e-06
3.7725526508929e-06
1.22208305004638e-08
4.78804616110321e-11
4.71073577819819e-11
1.21497666191049e-08
3.77269175957244e-06
5.73481563826571e-06
6.87779800308133e-06
7.45381966492349e-06
7.70810216391745e-06
7.80773133880037e-06
7.84284414245068e-06
7.85411848024459e-06
7.85745443681124e-06
7.85837288012604e-06
7.85860988150337e-06
7.85866730397841e-06
7.85868008292058e-06
7.85868233040245e-06
7.85868227297808e-06
7.85868177433648e-06
7.85868120386421e-06
7.85868063785442e-06
7.85868009208732e-06
7.85867957025182e-06
7.85867907382564e-06
7.85867860374032e-06
7.85867816081276e-06
7.85867774567033e-06
7.85867735885393e-06
7.85867700080568e-06
7.85867667197047e-06
7.85867637273946e-06
7.85867610302832e-06
7.85867586007372e-06
7.85867562732437e-06
7.85867532163533e-06
7.85867454661881e-06
7.85867148509244e-06
7.85865817980929e-06
7.85860142153117e-06
7.85836989111196e-06
7.85747532030098e-06
7.85422672434868e-06
7.84323364238381e-06
7.80891516937436e-06
7.71121679182665e-06
7.46084478182502e-06
6.89105999274311e-06
5.75494323299361e-06
3.7953845342242e-06
1.22918099480659e-08
4.8125823786809e-11
4.72342663301003e-11
1.21870287969939e-08
3.78509004224607e-06
5.75368313580389e-06
6.90066184919108e-06
7.47889636569214e-06
7.73427804841959e-06
7.83439946047236e-06
7.86971252936878e-06
7.88106156078636e-06
7.88442330421264e-06
7.88535008058295e-06
7.88558964874655e-06
7.88564786020537e-06
7.88566091441093e-06
7.88566328652941e-06
7.88566329977889e-06
7.88566285331457e-06
7.88566232656835e-06
7.88566179846313e-06
7.88566128596007e-06
7.88566079340001e-06
7.88566032262717e-06
7.88565987478857e-06
7.88565945083184e-06
7.88565905145082e-06
7.88565867718787e-06
7.88565832840338e-06
7.88565800536906e-06
7.88565770820627e-06
7.88565743650911e-06
7.88565718715415e-06
7.88565694327152e-06
7.88565662115508e-06
7.88565582276241e-06
7.88565272710341e-06
7.88563936030618e-06
7.88558243780712e-06
7.88535031538354e-06
7.88445341257867e-06
7.88119587066613e-06
7.87017080549926e-06
7.83574791510269e-06
7.73774266601271e-06
7.48656886814795e-06
6.9149404269824e-06
5.77511306769536e-06
3.80900136837805e-06
1.2333739609598e-08
4.82690519885377e-11
4.73042135996454e-11
1.22078540428587e-08
3.79213950247224e-06
5.76448561135331e-06
6.913817760108e-06
7.4933752071064e-06
7.74942425665403e-06
7.84984930989814e-06
7.88528793335311e-06
7.89668457061177e-06
7.90006302577756e-06
7.90099529534985e-06
7.90123658595943e-06
7.90129533751778e-06
7.90130858534985e-06
7.90131104860647e-06
7.90131111673084e-06
7.90131071085376e-06
7.90131021854468e-06
7.90130972080306e-06
7.90130923548641e-06
7.9013087674129e-06
7.90130831865931e-06
7.90130789049083e-06
7.90130748392816e-06
7.90130709969859e-06
7.90130673834577e-06
7.90130640017521e-06
7.90130608534667e-06
7.90130579380352e-06
7.90130552492789e-06
7.9013052753485e-06
7.90130502795371e-06
7.90130469869352e-06
7.90130388866722e-06
7.9013007746954e-06
7.90128737366185e-06
7.90123035904598e-06
7.90099790420741e-06
7.90009968734237e-06
7.8968370799795e-06
7.88579382061806e-06
7.85131129578217e-06
7.75313022148051e-06
7.50149578785668e-06
6.928805481084e-06
5.78683497854545e-06
3.81692422325782e-06
1.23579129871585e-08
4.83507010952494e-11
4.73418308379047e-11
1.22192059101213e-08
3.79604929314656e-06
5.77052089491927e-06
6.92120678928132e-06
7.50153706602049e-06
7.75798214568231e-06
7.85859029408503e-06
7.89410586896549e-06
7.90553216845462e-06
7.90892121205217e-06
7.9098570226279e-06
7.91009944429606e-06
7.91015855825353e-06
7.91017194021752e-06
7.9101744713548e-06
7.91017458323249e-06
7.91017420967924e-06
7.91017374511291e-06
7.91017327224601e-06
7.91017280966915e-06
7.91017236258776e-06
7.910171933203e-06
7.91017152282303e-06
7.91017113248962e-06
7.91017076294562e-06
7.91017041473021e-06
7.91017008811652e-06
7.91016978318079e-06
7.91016949974741e-06
7.91016923705355e-06
7.91016899156092e-06
7.91016874599224e-06
7.91016841608229e-06
7.91016760248555e-06
7.91016448082703e-06
7.91015106300448e-06
7.91009399973605e-06
7.90986136468228e-06
7.90896242801487e-06
7.90569702770778e-06
7.89464368490509e-06
7.86012797156261e-06
7.76184870521302e-06
7.50995624178723e-06
6.9366693570217e-06
5.79349075311204e-06
3.82142911268087e-06
1.23715373501925e-08
4.8396229814546e-11
4.73615998299353e-11
1.22252507702561e-08
3.79816784988427e-06
5.77381636815469e-06
6.92526402274623e-06
7.506036111036e-06
7.76271122535322e-06
7.86342745226816e-06
7.89898919691615e-06
7.91043358910675e-06
7.91382920070974e-06
7.9147672469529e-06
7.91501039718319e-06
7.91506975091902e-06
7.91508322592176e-06
7.9150858088202e-06
7.91508595655671e-06
7.91508560961758e-06
7.9150851681855e-06
7.91508471639255e-06
7.91508427348666e-06
7.91508384504062e-06
7.91508343327835e-06
7.91508303948963e-06
7.91508266469313e-06
7.91508230963166e-06
7.91508197484131e-06
7.91508166056744e-06
7.91508136682532e-06
7.91508109334442e-06
7.91508083925994e-06
7.91508060091877e-06
7.91508036093071e-06
7.9150800348912e-06
7.91507922321532e-06
7.91507610089551e-06
7.91506267721555e-06
7.91500559086941e-06
7.91477286237052e-06
7.9138735426306e-06
7.91060664040772e-06
7.89954784190446e-06
7.8650140910485e-06
7.76668126311085e-06
7.51464758904869e-06
6.94103314380322e-06
5.79718871553474e-06
3.8239359421964e-06
1.23790549976049e-08
4.84210961908624e-11
4.73717611613781e-11
1.22283987351474e-08
3.79929080179922e-06
5.77557735874809e-06
6.92744496331155e-06
7.50846460558627e-06
7.76527070890651e-06
7.86604948355739e-06
7.90163838644496e-06
7.91309359787152e-06
7.91649320432018e-06
7.91743263576428e-06
7.91767624785794e-06
7.9177357591461e-06
7.91774929944816e-06
7.91775192285503e-06
7.91775210083008e-06
7.91775177673734e-06
7.91775135546486e-06
7.91775092229793e-06
7.91775049710286e-06
7.91775008567845e-06
7.91774969032855e-06
7.9177493123155e-06
7.91774895258571e-06
7.91774861187746e-06
7.91774829071865e-06
7.91774798933773e-06
7.91774770769105e-06
7.91774744542384e-06
7.91774720159318e-06
7.9177469724645e-06
7.91774674056864e-06
7.91774642140252e-06
7.9177456152312e-06
7.91774249670929e-06
7.91772907379222e-06
7.91767197899945e-06
7.91743920517869e-06
7.91653968790076e-06
7.91327199680695e-06
7.90221030969749e-06
7.86766696180634e-06
7.7693055293825e-06
7.51719619092471e-06
6.9434056328428e-06
5.79920181400211e-06
3.82530287073563e-06
1.23831206313047e-08
4.84344117885915e-11
4.73768681917454e-11
1.2230002320233e-08
3.79987343102494e-06
5.77649905419353e-06
6.92859382265712e-06
7.50974964676457e-06
7.76662900098636e-06
7.86744332614084e-06
7.90304791736397e-06
7.91450948201556e-06
7.91791147508033e-06
7.91885175067524e-06
7.91909565209256e-06
7.91915526709588e-06
7.91916885433079e-06
7.91917151051983e-06
7.91917171479496e-06
7.9191714109537e-06
7.91917100786366e-06
7.91917059174086e-06
7.91917018303546e-06
7.91916978777022e-06
7.91916940820915e-06
7.91916904551463e-06
7.91916870063106e-06
7.91916837431655e-06
7.91916806706953e-06
7.91916777910674e-06
7.91916751032413e-06
7.91916726028035e-06
7.91916702796497e-06
7.91916680958278e-06
7.91916658762119e-06
7.91916627748979e-06
7.91916547933959e-06
7.91916236762863e-06
7.9191489496797e-06
7.91909185493421e-06
7.91885906218075e-06
7.9179594474074e-06
7.91469135168231e-06
7.90362816426792e-06
7.86907980310658e-06
7.77070337335114e-06
7.51855424180224e-06
6.9446707713376e-06
5.80027664299297e-06
3.82603387406877e-06
1.23852770196102e-08
4.84414050838629e-11
4.73793714359953e-11
1.22308001399925e-08
3.80016915459922e-06
5.77697154874026e-06
6.92918708170611e-06
7.51041660446761e-06
7.76733627411709e-06
7.86817048703045e-06
7.90378399674176e-06
7.91524923227548e-06
7.91865262884522e-06
7.91959341190382e-06
7.91983749340636e-06
7.91989717759804e-06
7.91991079979741e-06
7.91991348353705e-06
7.91991371131248e-06
7.91991342585479e-06
7.9199130396492e-06
7.91991263960778e-06
7.91991224669528e-06
7.91991186708864e-06
7.91991150298571e-06
7.91991115546983e-06
7.91991082543579e-06
7.91991051357643e-06
7.91991022045355e-06
7.91990994628752e-06
7.91990969090513e-06
7.91990945377428e-06
7.91990923382499e-06
7.91990902722702e-06
7.91990881645742e-06
7.91990851684375e-06
7.91990772842452e-06
7.91990462554775e-06
7.91989121530635e-06
7.91983412565528e-06
7.91960132841315e-06
7.9187016693042e-06
7.91543337195003e-06
7.90436941891138e-06
7.86981847859087e-06
7.77143430449941e-06
7.51926457359622e-06
6.94533289215239e-06
5.80083973435123e-06
3.82641734863083e-06
1.23863984852701e-08
4.84450048555708e-11
4.73805582879223e-11
1.22311854765391e-08
3.80031540508702e-06
5.77720815568604e-06
6.92948687343773e-06
7.51075572906361e-06
7.76769729938982e-06
7.86854249487948e-06
7.9041610078713e-06
7.91562833583879e-06
7.91903254713072e-06
7.91997363230942e-06
7.92021782600848e-06
7.92027755758324e-06
7.92029120716376e-06
7.9202939152112e-06
7.92029416459726e-06
7.9202938961799e-06
7.92029352625271e-06
7.92029314203202e-06
7.92029276484464e-06
7.92029240091004e-06
7.9202920523368e-06
7.92029172009982e-06
7.92029140504595e-06
7.92029110787777e-06
7.92029082919495e-06
7.92029056922285e-06
7.92029032771389e-06
7.92029010404952e-06
7.92028989710857e-06
7.92028970305213e-06
7.92028950440107e-06
7.92028921639576e-06
7.92028843896062e-06
7.92028534641016e-06
7.92027194594339e-06
7.92021486478704e-06
7.91998207143792e-06
7.91908239673313e-06
7.91581400463793e-06
7.90474967006539e-06
7.8701974226521e-06
7.77180930176162e-06
7.51962905010418e-06
6.9456727177022e-06
5.8011288695229e-06
3.82661437875556e-06
1.2386969066716e-08
4.84468151419512e-11
4.73810902997165e-11
1.22313629714575e-08
3.800384857707e-06
5.77732261904313e-06
6.92963386173726e-06
7.51092346895666e-06
7.76787682395652e-06
7.86872802990597e-06
7.90434932354117e-06
7.91581783238133e-06
7.91922251275494e-06
7.92016377751723e-06
7.92040804215248e-06
7.92046780757524e-06
7.92048148029885e-06
7.92048421138447e-06
7.92048448119618e-06
7.92048422902053e-06
7.92048387554331e-06
7.92048350762311e-06
7.92048314672143e-06
7.92048279895619e-06
7.92048246628489e-06
7.92048214963104e-06
7.92048184985441e-06
7.92048156766455e-06
7.92048130368341e-06
7.92048105812918e-06
7.92048083068882e-06
7.92048062067916e-06
7.92048042693182e-06
7.92048024562528e-06
7.92048005938802e-06
7.9204797833604e-06
7.92047901735015e-06
7.92047593574287e-06
7.92046254627718e-06
7.92040547574495e-06
7.9201726912514e-06
7.91927301746379e-06
7.91600458896567e-06
7.90494007646619e-06
7.87038718777135e-06
7.77199709736532e-06
7.51981156542805e-06
6.94584284519858e-06
5.80127354505847e-06
3.82671291406916e-06
1.23872510752335e-08
4.84476968504654e-11
4.73812998949535e-11
1.22314369479207e-08
3.80041468490473e-06
5.7773736456089e-06
6.92970119741467e-06
7.51100159867553e-06
7.76796124213101e-06
7.86881571913999e-06
7.90443855047661e-06
7.91590772203485e-06
7.91931267337222e-06
7.92025404752836e-06
7.92049835972563e-06
7.92055815153613e-06
7.92057184604654e-06
7.92057460048077e-06
7.92057489084974e-06
7.92057465574169e-06
7.92057431985936e-06
7.92057396954477e-06
7.92057362611548e-06
7.92057329548597e-06
7.92057297950029e-06
7.92057267908499e-06
7.92057239511969e-06
7.92057212832226e-06
7.92057187931245e-06
7.92057164828154e-06
7.92057143487883e-06
7.92057123837043e-06
7.92057105754473e-06
7.9205708885946e-06
7.92057071427177e-06
7.92057044959535e-06
7.92056969426959e-06
7.92056662287054e-06
7.92055324414151e-06
7.92049618448656e-06
7.92026341094531e-06
7.91936374907338e-06
7.91609532114229e-06
7.9050307495944e-06
7.8704775895871e-06
7.77208659710398e-06
7.51989856750839e-06
6.94592391076398e-06
5.80134237101218e-06
3.82675973481795e-06
1.23873835484351e-08
4.84481032406101e-11
4.73813151522335e-11
1.22314492086033e-08
3.80042257673627e-06
5.77738968224693e-06
6.92972461314875e-06
7.51103037580351e-06
7.76799333123124e-06
7.86884959657757e-06
7.90447329199964e-06
7.91594284709714e-06
7.91934796424757e-06
7.92028941283937e-06
7.92053376315362e-06
7.92059357998136e-06
7.92060729771836e-06
7.92061007751479e-06
7.92061039055861e-06
7.92061017474288e-06
7.92060985857193e-06
7.9206095279179e-06
7.92060920359433e-06
7.9206088913077e-06
7.92060859289249e-06
7.92060830934353e-06
7.92060804158939e-06
7.92060779035681e-06
7.92060755624266e-06
7.9206073393961e-06
7.92060713945041e-06
7.9206069556264e-06
7.92060678663886e-06
7.92060662863605e-06
7.92060646437797e-06
7.92060620875605e-06
7.92060546143299e-06
7.92060239716799e-06
7.9205890255041e-06
7.92053197280318e-06
7.92029920744686e-06
7.91939956030585e-06
7.91613115396377e-06
7.90506660047071e-06
7.87051340385199e-06
7.77212215342571e-06
7.5199332386285e-06
6.94595629942274e-06
5.8013699428166e-06
3.82677873625338e-06
1.23874388016825e-08
4.844827797407e-11
4.73811672683713e-11
1.2231411891536e-08
3.80041462426822e-06
5.77738151056263e-06
6.92971821242018e-06
7.51102603900271e-06
7.76799054693196e-06
7.86884774126583e-06
7.90447191618324e-06
7.91594169739845e-06
7.91934691770244e-06
7.92028841703833e-06
7.92053279639441e-06
7.92059263381035e-06
7.92060637167506e-06
7.92060917454776e-06
7.92060950862502e-06
7.92060931095983e-06
7.92060901338352e-06
7.92060870192243e-06
7.92060839629154e-06
7.9206081020043e-06
7.92060782098619e-06
7.92060755434087e-06
7.92060730305355e-06
7.92060706785311e-06
7.92060684930311e-06
7.92060664750426e-06
7.92060646208669e-06
7.92060629221565e-06
7.92060613650236e-06
7.9206059909597e-06
7.92060583819321e-06
7.92060559307197e-06
7.92060485534118e-06
7.92060179983382e-06
7.92058843606355e-06
7.92053139154712e-06
7.9202986380463e-06
7.91939901440037e-06
7.91613065982832e-06
7.90506621637014e-06
7.87051322683925e-06
7.77212230976311e-06
7.51993383998553e-06
6.94595738084397e-06
5.80137142679297e-06
3.82678032025319e-06
1.23874418988286e-08
4.84482684418966e-11
4.73808872135762e-11
1.22313286516248e-08
3.80038917821463e-06
5.77734757989574e-06
6.92968099318666e-06
7.51098810243701e-06
7.76795277573343e-06
7.86881026468104e-06
7.90443464873881e-06
7.91590454665619e-06
7.91930982493309e-06
7.9202513545996e-06
7.92049575198408e-06
7.92055560241957e-06
7.92056935441006e-06
7.92057217497395e-06
7.92057252595835e-06
7.92057234289299e-06
7.92057205930727e-06
7.92057176416372e-06
7.92057147482434e-06
7.92057119658661e-06
7.92057093150363e-06
7.92057068079055e-06
7.92057044548849e-06
7.92057022634078e-06
7.92057002389245e-06
7.92056983821657e-06
7.92056966893622e-06
7.92056951515475e-06
7.92056937535625e-06
7.92056924537536e-06
7.92056910762161e-06
7.92056887710133e-06
7.92056815378132e-06
7.92056511258372e-06
7.92055176281071e-06
7.92049473472521e-06
7.92026200687274e-06
7.91936243322033e-06
7.9160941962744e-06
7.90503002841259e-06
7.87047764003625e-06
7.77208793007341e-06
7.5199016893098e-06
6.94592902496354e-06
5.80134901585849e-06
3.82676625815531e-06
1.2387401192299e-08
4.84481486317069e-11
4.73803515093714e-11
1.22311666749271e-08
3.80033622166314e-06
5.77727313043728e-06
6.92959608919235e-06
7.51089887495932e-06
7.76786207959277e-06
7.86871919106577e-06
7.90434352873689e-06
7.9158134514514e-06
7.91921875656415e-06
7.92016030612807e-06
7.92040471794083e-06
7.9204645800624e-06
7.92047834576866e-06
7.92048118269579e-06
7.92048155081187e-06
7.92048138267344e-06
7.92048111076583e-06
7.92048083104271e-06
7.92048055719842e-06
7.92048029427746e-06
7.92048004443619e-06
7.92047980899127e-06
7.92047958905268e-06
7.92047938540208e-06
7.92047919859325e-06
7.92047902867771e-06
7.92047887524476e-06
7.92047873729226e-06
7.92047861313318e-06
7.92047849840522e-06
7.92047837536691e-06
7.92047815921507e-06
7.92047745025187e-06
7.92047442375958e-06
7.92046108964208e-06
7.9204040827771e-06
7.92017139452186e-06
7.91927191121067e-06
7.91600390296115e-06
7.90494029528692e-06
7.8703891856034e-06
7.77200216783222e-06
7.5198211260154e-06
6.94585763169226e-06
5.80129232525037e-06
3.82673077519902e-06
1.23873097403988e-08
4.84478926107353e-11
4.73793198597657e-11
1.22308535563376e-08
3.80023203178215e-06