/*--------------------------------*- C++ -*----------------------------------*\
  =========                 |
  \\      /  F ield         | OpenFOAM: The Open Source CFD Toolbox
   \\    /   O peration     | Website:  https://openfoam.org
    \\  /    A nd           | Version:  10
     \\/     M anipulation  |
\*---------------------------------------------------------------------------*/
FoamFile
{
    format      ascii;
    class       volScalarField;
    location    "2.6";
    object      h;
}
// * * * * * * * * * * * * * * * * * * * * * * * * * * * * * * * * * * * * * //

dimensions      [0 2 -2 0 0 0 0];

internalField   nonuniform List<scalar> 
2500
(
7098.97719910217
7055.4550173608
7028.905510155
7019.45545463963
7016.47119629607
7015.55514559539
7015.28391340961
7015.20638415523
7015.18406896639
7015.1778866354
7015.17466252412
7015.17296480078
7015.17201307348
7015.1708527787
7015.16977286876
7015.16858058783
7015.16795755251
7015.16718916082
7015.16631635278
7015.16569240909
7015.16508833691
7015.16445614979
7015.16389457975
7015.1636857888
7015.16345824725
7015.16310821584
7015.16301658277
7015.16291628398
7015.16279509749
7015.162909391
7015.1630456596
7015.16317325041
7015.16352416919
7015.16400823603
7015.16445733667
7015.16491018038
7015.16542331893
7015.16587358155
7015.16685210259
7015.16806960954
7015.17065475369
7015.17823833127
7015.2037987652
7015.29130864736
7015.58490722509
7016.52622602075
7019.50949091222
7028.93285773205
7055.86661226899
7098.87537606106
5066.63994533529
4956.53167949313
4882.37577505276
4852.30400046425
4841.29343672101
4837.46264163408
4836.21166123443
4835.83279443183
4835.7262470588
4835.69837960274
4835.69085975792
4835.68874470787
4835.68816945573
4835.68769660531
4835.68727524197
4835.68683781675
4835.68659180882
4835.68629379195
4835.6859418638
4835.68565340676
4835.6852828554
4835.68479229166
4835.68431688279
4835.68420799292
4835.68414951772
4835.68390806395
4835.68388456451
4835.68388083214
4835.68375864672
4835.68391341534
4835.6839727251
4835.68383618227
4835.68425500847
4835.6848641024
4835.68513707675
4835.68529866913
4835.68548882942
4835.68572534449
4835.68655231744
4835.68905524387
4835.69851261433
4835.73382228251
4835.85923155831
4836.27911452755
4837.59569154606
4841.47144728943
4852.39041489339
4882.33001394058
4957.89913096467
5068.21573774961
3534.47670955524
3420.19776939865
3344.18200902396
3312.811485018
3301.27653117539
3297.24459963101
3295.91639493337
3295.5096320293
3295.39423595847
3295.36389257134
3295.35599536863
3295.35402580937
3295.35387664879
3295.35379265027
3295.35372734586
3295.35370787698
3295.35370037014
3295.35368018467
3295.35359090236
3295.35350953776
3295.35334677767
3295.35307731485
3295.35277124248
3295.35266651948
3295.35267836574
3295.35260029367
3295.35260776769
3295.35263824636
3295.35260084338
3295.35268268555
3295.35268308651
3295.35254361169
3295.3528399181
3295.35331606012
3295.35336377131
3295.35330838646
3295.3533416227
3295.35337876719
3295.3540018349
3295.35637526946
3295.36599108756
3295.4028249162
3295.53404927537
3295.9732776835
3297.3487194671
3301.40104767229
3312.84780772741
3344.22988897566
3422.06299721948
3539.62667840753
2624.30930582715
2543.82566593051
2496.69550802744
2477.59604236096
2470.8727656697
2468.60998043267
2467.88057748628
2467.6588938509
2467.59597770479
2467.57939326307
2467.57504744936
2467.57406543988
2467.57413442026
2467.57416241939
2467.57419503386
2467.57422713887
2467.57424850263
2467.5742617962
2467.5742508457
2467.57425770915
2467.5742364031
2467.57412533035
2467.57396070249
2467.57389319501
2467.57393038383
2467.57392397065
2467.57392114346
2467.5739620844
2467.57398913524
2467.57401333791
2467.57400000917
2467.57391049307
2467.57405711352
2467.57431734464
2467.5743062015
2467.57426379447
2467.5742554299
2467.57419529511
2467.57443316867
2467.57550165817
2467.58026327973
2467.5991078208
2467.66722555635
2467.89905898467
2468.64177356268
2470.90476922916
2477.59974110716
2496.84710229074
2545.39970901721
2630.22063629301
2171.19417701765
2126.65707383027
2103.83372674607
2094.68978485229
2091.56878181001
2090.54893454755
2090.22551441522
2090.12748154996
2090.09950239228
2090.0920745822
2090.09010509227
2090.08968889951
2090.0897675501
2090.08981317346
2090.08984837067
2090.08987456019
2090.08990077696
2090.08992178293
2090.0899273887
2090.08993169881
2090.08993520878
2090.08990831256
2090.08983435253
2090.08980624238
2090.08983261341
2090.08983830904
2090.08984132437
2090.0898678367
2090.0898874859
2090.08989563788
2090.08988793753
2090.08984486242
2090.08990670081
2090.09000983418
2090.09000344112
2090.08998768864
2090.08997421071
2090.08994461076
2090.08997931234
2090.09035339905
2090.0923221026
2090.10024764444
2090.12913393101
2090.22836021228
2090.55134955155
2091.56223640847
2094.66722145483
2103.92077279492
2127.61207344391
2175.61093733022
1974.54373229773
1953.77814625027
1944.41172419755
1940.68111631685
1939.43201485778
1939.03255568746
1938.90743745635
1938.86952656553
1938.85862606493
1938.85570655287
1938.85492485884
1938.85476877442
1938.85481425303
1938.85484406259
1938.8548652367
1938.85487983327
1938.8548957575
1938.85490883134
1938.85491501781
1938.85491619895
1938.85492200834
1938.8549141924
1938.85488928818
1938.85488565399
1938.85489389742
1938.85489739599
1938.85490182233
1938.85491433364
1938.85492425824
1938.85492794257
1938.85492458366
1938.85490737459
1938.85492989001
1938.85496369663
1938.85496116365
1938.8549548289
1938.85494432578
1938.85492791602
1938.85492568415
1938.85504629048
1938.85576455148
1938.85872137902
1938.86953319724
1938.90679282747
1939.02926673654
1939.42037819892
1940.65644519598
1944.43606174536
1954.23859006815
1977.09299027666
1898.09540030128
1889.59590977305
1886.18338251811
1884.82931196569
1884.38063147486
1884.23925727592
1884.19539668977
1884.18210241793
1884.17825134894
1884.17720796237
1884.17692980399
1884.17688018765
1884.17689898942
1884.17691330466
1884.17692349348
1884.17693061611
1884.17693787437
1884.17694352759
1884.17694693941
1884.17694744239
1884.1769508026
1884.1769484187
1884.17694189575
1884.17694364906
1884.17694622999
1884.17694781299
1884.1769497968
1884.1769541882
1884.17695812791
1884.17696000923
1884.17695876865
1884.17695267774
1884.17695988717
1884.17696943316
1884.1769681697
1884.17696553201
1884.17695990035
1884.1769517957
1884.17694684034
1884.17698261897
1884.17722504997
1884.17823875125
1884.18194284617
1884.19469271174
1884.2368008661
1884.37319314626
1884.81325817406
1886.18333812313
1889.78282870966
1899.32478804302
1870.94657682582
1867.80925807556
1866.6718598424
1866.22268030311
1866.07449030439
1866.02823150107
1866.01398511832
1866.0096662714
1866.00840702941
1866.00806190447
1866.00797179439
1866.00795785568
1866.00796411963
1866.00796989856
1866.00797422148
1866.00797724587
1866.00797996335
1866.00798202475
1866.0079834976
1866.0079837623
1866.00798519216
1866.00798462378
1866.00798328404
1866.00798473879
1866.00798566595
1866.00798626879
1866.00798689766
1866.00798815277
1866.00798952729
1866.00799040163
1866.00799002349
1866.00798807294
1866.00799010542
1866.00799239568
1866.0079917285
1866.00799065901
1866.00798823444
1866.00798477989
1866.00798196304
1866.00799199068
1866.00806927261
1866.00839474653
1866.00958020741
1866.0136438863
1866.02707587166
1866.07098282699
1866.21467475121
1866.66773568333
1867.87541452719
1871.46453411625
1862.00876260503
1860.94449389451
1860.5905335302
1860.45181629665
1860.40607957111
1860.3918733196
1860.38752239984
1860.38620391616
1860.3858175475
1860.38571071428
1860.38568348593
1860.38567981667
1860.38568182252
1860.38568390505
1860.38568554151
1860.38568667127
1860.38568758847
1860.38568828003
1860.3856888545
1860.38568903634
1860.3856894127
1860.38568940556
1860.38568936408
1860.38568989128
1860.38569019966
1860.38569041098
1860.38569061256
1860.38569093824
1860.38569135644
1860.38569169432
1860.38569157394
1860.38569099377
1860.3856915128
1860.38569194996
1860.38569163541
1860.38569122406
1860.38569032463
1860.38568904122
1860.38568787671
1860.38569061139
1860.38571408693
1860.38581304115
1860.38617195795
1860.3873951483
1860.39143009887
1860.40468513428
1860.44845590348
1860.58772442513
1860.9653417011
1862.2049328166
1859.24989639552
1858.9134547083
1858.80913934834
1858.76872287357
1858.75537859343
1858.7512403201
1858.74997788184
1858.74959570251
1858.74948333112
1858.74945208498
1858.74944429543
1858.74944337461
1858.74944399863
1858.74944468621
1858.74944524587
1858.7494456274
1858.7494459194
1858.74944616228
1858.74944637709
1858.7494464479
1858.74944652083
1858.7494465705
1858.74944664754
1858.74944681657
1858.7494469088
1858.74944697651
1858.74944704619
1858.74944712935
1858.74944724175
1858.74944735088
1858.74944731049
1858.74944714584
1858.74944726319
1858.74944731502
1858.74944718565
1858.74944703894
1858.74944673953
1858.74944631427
1858.74944591408
1858.74944665412
1858.7494534782
1858.7494821756
1858.74958583406
1858.7499367814
1858.75108990705
1858.75488404596
1858.76747451477
1858.80780946577
1858.91937062563
1859.31801676082
1858.44428128184
1858.34411305165
1858.31471333239
1858.30349299818
1858.29978061163
1858.29862825157
1858.29827756831
1858.29817156155
1858.2981403371
1858.29813162917
1858.29812949845
1858.29812927476
1858.29812946076
1858.29812967133
1858.29812984664
1858.29812996526
1858.29813005363
1858.29813012979
1858.29813020119
1858.29813023784
1858.29813026146
1858.29813028222
1858.29813031283
1858.29813036008
1858.29813038474
1858.2981304046
1858.29813042863
1858.29813045054
1858.29813047741
1858.29813050737
1858.29813049527
1858.29813044964
1858.29813047058
1858.29813046646
1858.29813041974
1858.29813037141
1858.29813027997
1858.29813015182
1858.29813003106
1858.29813023147
1858.29813213642
1858.29814011729
1858.29816883703
1858.2982654221
1858.29858116796
1858.29961907582
1858.30306949478
1858.31418507583
1858.34562863476
1858.46628346148
1858.22013235175
1858.19181171484
1858.18383425733
1858.18084389378
1858.17985258175
1858.17954402339
1858.17945022365
1858.17942191659
1858.17941357458
1858.17941124497
1858.17941068223
1858.17941062791
1858.17941067998
1858.17941073974
1858.17941079022
1858.17941082419
1858.17941084931
1858.17941087083
1858.17941089237
1858.17941090703
1858.17941091531
1858.17941092201
1858.17941093061
1858.17941094198
1858.17941094761
1858.17941095318
1858.17941096137
1858.17941096728
1858.17941097297
1858.1794109801
1858.17941097695
1858.17941096428
1858.17941096496
1858.17941096221
1858.1794109488
1858.17941093224
1858.17941090653
1858.17941087124
1858.17941083873
1858.17941089377
1858.17941140676
1858.17941354429
1858.17942120919
1858.17944682037
1858.17953007426
1858.17980298312
1858.18070989358
1858.18364622711
1858.19215925941
1858.2268145619
1858.16036021928
1858.152706103
1858.15061225863
1858.1498427657
1858.14958736643
1858.14950755892
1858.1494832927
1858.1494759805
1858.14947382579
1858.14947322338
1858.14947307776
1858.14947306282
1858.1494730757
1858.14947309078
1858.14947310367
1858.14947311207
1858.14947311812
1858.14947312336
1858.14947312906
1858.14947313351
1858.14947313577
1858.14947313741
1858.14947313909
1858.14947314139
1858.14947314267
1858.14947314411
1858.14947314655
1858.14947314807
1858.14947314911
1858.14947315063
1858.14947314985
1858.14947314651
1858.14947314594
1858.14947314511
1858.14947314135
1858.14947313697
1858.14947313073
1858.14947312228
1858.14947311495
1858.14947313121
1858.14947326587
1858.14947381972
1858.14947579719
1858.14948236271
1858.14950357958
1858.14957285159
1858.14980263927
1858.15055035069
1858.15277531989
1858.16228472019
1858.14500997063
1858.14302189852
1858.14248848616
1858.14229643458
1858.14223267984
1858.14221266702
1858.14220657291
1858.14220473752
1858.14220419589
1858.14220404364
1858.14220400537
1858.14220399943
1858.14220400122
1858.14220400394
1858.14220400615
1858.14220400736
1858.1422040081
1858.14220400863
1858.14220400947
1858.14220401018
1858.14220401044
1858.14220401048
1858.1422040105
1858.14220401072
1858.14220401064
1858.14220401072
1858.14220401126
1858.14220401155
1858.14220401171
1858.14220401203
1858.14220401188
1858.14220401121
1858.14220401132
1858.14220401125
1858.14220401042
1858.14220400984
1858.14220400913
1858.14220400791
1858.14220400736
1858.14220401342
1858.14220404882
1858.142204189
1858.1422046846
1858.14220631719
1858.14221155915
1858.142228591
1858.1422849446
1858.14246929604
1858.14303278178
1858.14553913456
1858.14119803374
1858.14069958781
1858.14056731431
1858.14052063523
1858.14050515637
1858.14050027439
1858.14049878297
1858.14049833245
1858.14049819807
1858.14049815891
1858.14049814764
1858.14049814433
1858.14049814313
1858.14049814242
1858.14049814174
1858.14049814096
1858.14049814017
1858.14049813942
1858.14049813884
1858.14049813836
1858.14049813785
1858.14049813736
1858.14049813693
1858.14049813659
1858.14049813625
1858.140498136
1858.14049813595
1858.14049813591
1858.14049813591
1858.14049813604
1858.14049813613
1858.14049813619
1858.14049813652
1858.14049813689
1858.14049813722
1858.14049813776
1858.14049813841
1858.14049813911
1858.14049814025
1858.14049814321
1858.14049815345
1858.14049818936
1858.14049831156
1858.14049870761
1858.14049996763
1858.14050403702
1858.14051746369
1858.14056165174
1858.14070037797
1858.14133770427
1858.14027953713
1858.14015848406
1858.14012643798
1858.14011532919
1858.14011165665
1858.14011049302
1858.14011013483
1858.14011002485
1858.14010999041
1858.14010997886
1858.14010997415
1858.14010997152
1858.1401099696
1858.14010996797
1858.14010996651
1858.14010996517
1858.14010996394
1858.14010996284
1858.14010996187
1858.14010996103
1858.14010996028
1858.14010995961
1858.14010995903
1858.14010995855
1858.14010995813
1858.14010995781
1858.14010995762
1858.1401099575
1858.14010995747
1858.14010995756
1858.14010995773
1858.14010995798
1858.1401099584
1858.14010995893
1858.14010995959
1858.14010996043
1858.14010996145
1858.14010996267
1858.14010996417
1858.14010996633
1858.14010997043
1858.14010998084
1858.1401100118
1858.14011010715
1858.140110404
1858.14011135334
1858.14011447735
1858.14012483343
1858.14015816384
1858.14031508029
1858.14006416876
1858.14003562646
1858.14002797298
1858.14002534852
1858.14002448766
1858.14002421387
1858.14002412763
1858.14002409934
1858.14002408884
1858.14002408389
1858.14002408074
1858.14002407827
1858.14002407615
1858.14002407427
1858.14002407259
1858.14002407107
1858.14002406971
1858.14002406849
1858.14002406741
1858.14002406646
1858.14002406561
1858.14002406488
1858.14002406424
1858.14002406371
1858.14002406327
1858.14002406293
1858.1400240627
1858.14002406256
1858.14002406253
1858.14002406262
1858.14002406281
1858.14002406312
1858.14002406357
1858.14002406417
1858.14002406492
1858.14002406586
1858.14002406699
1858.14002406833
1858.14002406994
1858.1400240719
1858.14002407452
1858.14002407884
1858.14002408811
1858.14002411231
1858.14002418254
1858.14002440153
1858.14002512102
1858.14002753091
1858.14003541449
1858.14007291581
1858.14001490182
1858.14000837615
1858.14000651576
1858.1400058689
1858.14000566185
1858.140005596
1858.14000557358
1858.14000556449
1858.14000555964
1858.14000555625
1858.14000555347
1858.14000555103
1858.14000554885
1858.1400055469
1858.14000554513
1858.14000554355
1858.14000554213
1858.14000554086
1858.14000553973
1858.14000553873
1858.14000553785
1858.14000553708
1858.14000553642
1858.14000553587
1858.14000553541
1858.14000553506
1858.14000553482
1858.14000553468
1858.14000553465
1858.14000553473
1858.14000553493
1858.14000553527
1858.14000553574
1858.14000553636
1858.14000553715
1858.14000553812
1858.1400055393
1858.14000554068
1858.14000554231
1858.14000554422
1858.14000554649
1858.14000554936
1858.14000555356
1858.1400055613
1858.14000557948
1858.14000563176
1858.1400058041
1858.14000639335
1858.14000828576
1858.14001698319
1858.14000388236
1858.14000245851
1858.14000194305
1858.14000174768
1858.14000168951
1858.14000167129
1858.14000166361
1858.14000165901
1858.1400016555
1858.14000165249
1858.1400016498
1858.14000164737
1858.14000164516
1858.14000164317
1858.14000164137
1858.14000163975
1858.1400016383
1858.140001637
1858.14000163584
1858.14000163481
1858.1400016339
1858.14000163311
1858.14000163244
1858.14000163187
1858.1400016314
1858.14000163105
1858.1400016308
1858.14000163065
1858.14000163062
1858.14000163071
1858.14000163092
1858.14000163126
1858.14000163175
1858.14000163239
1858.1400016332
1858.14000163419
1858.14000163538
1858.14000163679
1858.14000163842
1858.14000164032
1858.14000164249
1858.140001645
1858.140001648
1858.14000165196
1858.14000165837
1858.14000167338
1858.14000172395
1858.14000190526
1858.14000241944
1858.14000435519
1858.14000146759
1858.14000119773
1858.1400009881
1858.14000089398
1858.14000086917
1858.14000086175
1858.14000085748
1858.14000085397
1858.14000085081
1858.14000084791
1858.14000084525
1858.14000084282
1858.1400008406
1858.14000083858
1858.14000083676
1858.14000083512
1858.14000083364
1858.14000083231
1858.14000083113
1858.14000083008
1858.14000082916
1858.14000082835
1858.14000082766
1858.14000082709
1858.14000082661
1858.14000082625
1858.140000826
1858.14000082585
1858.14000082582
1858.14000082591
1858.14000082613
1858.14000082648
1858.14000082698
1858.14000082763
1858.14000082845
1858.14000082945
1858.14000083066
1858.14000083207
1858.14000083371
1858.1400008356
1858.14000083773
1858.14000084013
1858.14000084281
1858.14000084585
1858.14000084958
1858.14000085633
1858.14000088025
1858.14000097189
1858.14000117557
1858.14000156264
1858.14000094804
1858.14000093354
1858.14000079226
1858.14000072057
1858.14000070321
1858.14000069827
1858.14000069485
1858.14000069164
1858.1400006886
1858.14000068575
1858.14000068311
1858.14000068068
1858.14000067845
1858.14000067642
1858.14000067458
1858.14000067292
1858.14000067142
1858.14000067008
1858.14000066888
1858.14000066781
1858.14000066687
1858.14000066606
1858.14000066536
1858.14000066477
1858.14000066429
1858.14000066392
1858.14000066367
1858.14000066352
1858.14000066349
1858.14000066359
1858.14000066381
1858.14000066417
1858.14000066467
1858.14000066533
1858.14000066616
1858.14000066718
1858.14000066839
1858.14000066981
1858.14000067145
1858.14000067333
1858.14000067544
1858.14000067778
1858.14000068035
1858.14000068312
1858.14000068618
1858.14000069105
1858.14000070914
1858.1400007813
1858.14000091624
1858.14000095646
1858.14000083794
1858.14000087884
1858.14000075269
1858.14000068599
1858.14000067035
1858.14000066604
1858.14000066287
1858.14000065978
1858.1400006568
1858.14000065399
1858.14000065136
1858.14000064893
1858.14000064669
1858.14000064465
1858.1400006428
1858.14000064112
1858.14000063961
1858.14000063826
1858.14000063704
1858.14000063597
1858.14000063502
1858.1400006342
1858.14000063349
1858.14000063289
1858.14000063241
1858.14000063204
1858.14000063178
1858.14000063164
1858.14000063161
1858.1400006317
1858.14000063193
1858.14000063229
1858.1400006328
1858.14000063347
1858.14000063431
1858.14000063534
1858.14000063655
1858.14000063798
1858.14000063962
1858.14000064149
1858.14000064358
1858.14000064589
1858.14000064839
1858.14000065105
1858.1400006539
1858.14000065827
1858.14000067503
1858.14000074293
1858.14000086278
1858.14000082688
1858.14000081479
1858.14000086751
1858.14000074475
1858.14000067922
1858.14000066402
1858.14000065992
1858.14000065686
1858.14000065383
1858.14000065089
1858.14000064809
1858.14000064548
1858.14000064305
1858.14000064081
1858.14000063877
1858.1400006369
1858.14000063522
1858.1400006337
1858.14000063233
1858.14000063111
1858.14000063003
1858.14000062907
1858.14000062824
1858.14000062753
1858.14000062693
1858.14000062645
1858.14000062607
1858.14000062581
1858.14000062567
1858.14000062564
1858.14000062574
1858.14000062597
1858.14000062634
1858.14000062685
1858.14000062753
1858.14000062837
1858.1400006294
1858.14000063063
1858.14000063205
1858.1400006337
1858.14000063555
1858.14000063763
1858.14000063991
1858.14000064237
1858.14000064497
1858.14000064772
1858.14000065192
1858.14000066832
1858.14000073522
1858.14000085172
1858.14000079941
1858.14000080987
1858.14000086507
1858.14000074312
1858.1400006779
1858.14000066284
1858.14000065882
1858.14000065582
1858.14000065283
1858.14000064992
1858.14000064714
1858.14000064453
1858.1400006421
1858.14000063987
1858.14000063782
1858.14000063595
1858.14000063426
1858.14000063273
1858.14000063136
1858.14000063014
1858.14000062905
1858.14000062809
1858.14000062726
1858.14000062654
1858.14000062594
1858.14000062546
1858.14000062508
1858.14000062483
1858.14000062468
1858.14000062466
1858.14000062476
1858.14000062499
1858.14000062536
1858.14000062588
1858.14000062656
1858.14000062741
1858.14000062844
1858.14000062967
1858.1400006311
1858.14000063274
1858.14000063459
1858.14000063666
1858.14000063892
1858.14000064136
1858.14000064391
1858.1400006466
1858.14000065072
1858.140000667
1858.14000073364
1858.14000084935
1858.14000079356
1858.14000080876
1858.14000086448
1858.14000074274
1858.14000067761
1858.1400006626
1858.14000065862
1858.14000065565
1858.14000065268
1858.14000064977
1858.14000064701
1858.1400006444
1858.14000064198
1858.14000063974
1858.14000063769
1858.14000063583
1858.14000063413
1858.14000063261
1858.14000063123
1858.14000063001
1858.14000062892
1858.14000062796
1858.14000062713
1858.14000062641
1858.14000062581
1858.14000062533
1858.14000062496
1858.1400006247
1858.14000062456
1858.14000062453
1858.14000062464
1858.14000062487
1858.14000062524
1858.14000062577
1858.14000062645
1858.1400006273
1858.14000062834
1858.14000062956
1858.14000063099
1858.14000063263
1858.14000063449
1858.14000063655
1858.1400006388
1858.14000064122
1858.14000064376
1858.14000064642
1858.14000065051
1858.14000066674
1858.14000073329
1858.14000084882
1858.1400007923
1858.14000080851
1858.14000086432
1858.14000074261
1858.1400006775
1858.14000066249
1858.14000065851
1858.14000065554
1858.14000065257
1858.14000064966
1858.1400006469
1858.1400006443
1858.14000064188
1858.14000063964
1858.14000063759
1858.14000063573
1858.14000063404
1858.14000063252
1858.14000063115
1858.14000062992
1858.14000062884
1858.14000062788
1858.14000062705
1858.14000062634
1858.14000062574
1858.14000062526
1858.14000062489
1858.14000062464
1858.1400006245
1858.14000062448
1858.14000062458
1858.14000062482
1858.14000062519
1858.14000062572
1858.1400006264
1858.14000062725
1858.14000062829
1858.14000062952
1858.14000063095
1858.14000063259
1858.14000063444
1858.1400006365
1858.14000063875
1858.14000064117
1858.14000064371
1858.14000064637
1858.14000065046
1858.1400006667
1858.14000073324
1858.14000084875
1858.14000079209
1858.1400008085
1858.1400008643
1858.14000074254
1858.14000067739
1858.14000066235
1858.14000065834
1858.14000065534
1858.14000065235
1858.14000064944
1858.14000064667
1858.14000064406
1858.14000064164
1858.14000063941
1858.14000063737
1858.14000063552
1858.14000063383
1858.14000063231
1858.14000063095
1858.14000062974
1858.14000062866
1858.14000062771
1858.14000062688
1858.14000062618
1858.14000062558
1858.14000062511
1858.14000062474
1858.14000062449
1858.14000062435
1858.14000062433
1858.14000062444
1858.14000062468
1858.14000062505
1858.14000062558
1858.14000062626
1858.14000062711
1858.14000062815
1858.14000062937
1858.14000063081
1858.14000063245
1858.1400006343
1858.14000063636
1858.14000063862
1858.14000064106
1858.14000064361
1858.1400006463
1858.14000065043
1858.1400006667
1858.1400007333
1858.14000084889
1858.14000079222
1858.14000080863
1858.14000086438
1858.14000074251
1858.14000067727
1858.14000066215
1858.14000065808
1858.14000065502
1858.140000652
1858.14000064907
1858.14000064628
1858.14000064367
1858.14000064125
1858.14000063903
1858.140000637
1858.14000063515
1858.14000063348
1858.14000063197
1858.14000063062
1858.14000062941
1858.14000062835
1858.14000062741
1858.14000062659
1858.14000062589
1858.14000062531
1858.14000062484
1858.14000062447
1858.14000062423
1858.14000062409
1858.14000062408
1858.14000062418
1858.14000062442
1858.1400006248
1858.14000062532
1858.140000626
1858.14000062685
1858.14000062788
1858.14000062911
1858.14000063054
1858.14000063218
1858.14000063404
1858.14000063611
1858.14000063839
1858.14000064085
1858.14000064344
1858.14000064618
1858.14000065037
1858.14000066673
1858.14000073344
1858.14000084919
1858.14000079255
1858.14000080888
1858.14000086456
1858.1400007425
1858.14000067712
1858.14000066189
1858.14000065771
1858.14000065459
1858.14000065151
1858.14000064854
1858.14000064574
1858.14000064312
1858.1400006407
1858.14000063849
1858.14000063647
1858.14000063463
1858.14000063297
1858.14000063148
1858.14000063015
1858.14000062896
1858.1400006279
1858.14000062697
1858.14000062617
1858.14000062548
1858.14000062491
1858.14000062444
1858.14000062409
1858.14000062385
1858.14000062372
1858.1400006237
1858.14000062381
1858.14000062405
1858.14000062443
1858.14000062495
1858.14000062562
1858.14000062647
1858.1400006275
1858.14000062872
1858.14000063015
1858.14000063179
1858.14000063365
1858.14000063574
1858.14000063804
1858.14000064054
1858.14000064319
1858.14000064601
1858.1400006503
1858.14000066678
1858.14000073366
1858.14000084965
1858.14000079305
1858.14000080927
1858.14000086486
1858.14000074253
1858.14000067695
1858.14000066156
1858.14000065725
1858.14000065402
1858.14000065088
1858.14000064786
1858.14000064503
1858.14000064241
1858.14000063999
1858.14000063779
1858.14000063578
1858.14000063396
1858.14000063232
1858.14000063085
1858.14000062954
1858.14000062836
1858.14000062733
1858.14000062642
1858.14000062563
1858.14000062495
1858.14000062439
1858.14000062393
1858.14000062359
1858.14000062335
1858.14000062323
1858.14000062321
1858.14000062333
1858.14000062356
1858.14000062393
1858.14000062445
1858.14000062512
1858.14000062596
1858.14000062698
1858.1400006282
1858.14000062962
1858.14000063127
1858.14000063314
1858.14000063524
1858.14000063758
1858.14000064013
1858.14000064285
1858.14000064578
1858.1400006502
1858.14000066685
1858.14000073396
1858.14000085028
1858.14000079375
1858.14000080982
1858.1400008653
1858.14000074261
1858.14000067676
1858.14000066116
1858.14000065668
1858.14000065333
1858.14000065009
1858.14000064702
1858.14000064416
1858.14000064153
1858.14000063912
1858.14000063693
1858.14000063494
1858.14000063314
1858.14000063153
1858.14000063008
1858.14000062879
1858.14000062764
1858.14000062662
1858.14000062573
1858.14000062496
1858.1400006243
1858.14000062375
1858.14000062331
1858.14000062297
1858.14000062274
1858.14000062262
1858.14000062261
1858.14000062272
1858.14000062296
1858.14000062333
1858.14000062384
1858.1400006245
1858.14000062534
1858.14000062635
1858.14000062756
1858.14000062897
1858.14000063062
1858.1400006325
1858.14000063462
1858.14000063699
1858.1400006396
1858.14000064242
1858.14000064548
1858.14000065007
1858.14000066695
1858.14000073435
1858.1400008511
1858.14000079466
1858.14000081058
1858.14000086592
1858.14000074275
1858.14000067655
1858.14000066068
1858.140000656
1858.1400006525
1858.14000064916
1858.14000064603
1858.14000064313
1858.14000064049
1858.14000063809
1858.14000063591
1858.14000063395
1858.14000063218
1858.14000063059
1858.14000062917
1858.14000062791
1858.14000062679
1858.14000062579
1858.14000062492
1858.14000062417
1858.14000062353
1858.140000623
1858.14000062256
1858.14000062224
1858.14000062202
1858.1400006219
1858.1400006219
1858.14000062201
1858.14000062224
1858.14000062261
1858.14000062311
1858.14000062377
1858.14000062459
1858.14000062559
1858.14000062679
1858.1400006282
1858.14000062984
1858.14000063172
1858.14000063387
1858.14000063628
1858.14000063897
1858.1400006419
1858.14000064511
1858.14000064992
1858.14000066706
1858.14000073484
1858.14000085215
1858.14000079583
1858.14000081158
1858.14000086673
1858.14000074295
1858.14000067633
1858.14000066013
1858.14000065521
1858.14000065153
1858.14000064807
1858.14000064487
1858.14000064194
1858.14000063929
1858.14000063689
1858.14000063474
1858.1400006328
1858.14000063107
1858.14000062952
1858.14000062813
1858.1400006269
1858.14000062581
1858.14000062484
1858.140000624
1858.14000062327
1858.14000062265
1858.14000062213
1858.14000062171
1858.1400006214
1858.14000062119
1858.14000062108
1858.14000062107
1858.14000062119
1858.14000062142
1858.14000062177
1858.14000062227
1858.14000062292
1858.14000062372
1858.14000062471
1858.14000062589
1858.14000062729
1858.14000062893
1858.14000063082
1858.14000063298
1858.14000063544
1858.1400006382
1858.14000064126
1858.14000064465
1858.14000064972
1858.1400006672
1858.14000073545
1858.14000085346
1858.1400007973
1858.1400008129
1858.14000086781
1858.14000074325
1858.14000067608
1858.14000065949
1858.14000065428
1858.1400006504
1858.14000064681
1858.14000064353
1858.14000064058
1858.14000063792
1858.14000063554
1858.14000063341
1858.14000063151
1858.14000062982
1858.1400006283
1858.14000062696
1858.14000062576
1858.1400006247
1858.14000062377
1858.14000062296
1858.14000062225
1858.14000062165
1858.14000062115
1858.14000062075
1858.14000062045
1858.14000062025
1858.14000062014
1858.14000062015
1858.14000062026
1858.14000062048
1858.14000062083
1858.14000062132
1858.14000062195
1858.14000062274
1858.14000062371
1858.14000062488
1858.14000062626
1858.14000062789
1858.14000062978
1858.14000063196
1858.14000063446
1858.14000063731
1858.1400006405
1858.1400006441
1858.14000064946
1858.14000066735
1858.14000073619
1858.14000085508
1858.14000079912
1858.1400008146
1858.14000086921
1858.14000074364
1858.14000067581
1858.14000065875
1858.1400006532
1858.1400006491
1858.14000064538
1858.14000064203
1858.14000063904
1858.14000063639
1858.14000063403
1858.14000063194
1858.14000063008
1858.14000062843
1858.14000062696
1858.14000062566
1858.1400006245
1858.14000062348
1858.14000062259
1858.1400006218
1858.14000062113
1858.14000062055
1858.14000062007
1858.14000061969
1858.1400006194
1858.14000061921
1858.14000061911
1858.14000061912
1858.14000061923
1858.14000061945
1858.14000061979
1858.14000062026
1858.14000062088
1858.14000062165
1858.1400006226
1858.14000062374
1858.14000062511