/*--------------------------------*- C++ -*----------------------------------*\
  =========                 |
  \\      /  F ield         | OpenFOAM: The Open Source CFD Toolbox
   \\    /   O peration     | Website:  https://openfoam.org
    \\  /    A nd           | Version:  10
     \\/     M anipulation  |
\*---------------------------------------------------------------------------*/
FoamFile
{
    format      ascii;
    class       volScalarField;
    location    "2.6";
    object      k;
}
// * * * * * * * * * * * * * * * * * * * * * * * * * * * * * * * * * * * * * //

dimensions      [0 2 -2 0 0 0 0];

internalField   nonuniform List<scalar> 
2500
(
3.88177202087688e-09
7.17943986400112e-08
2.87642252142205e-07
4.51403085172446e-07
5.47277606849825e-07
5.93787328372945e-07
6.13080813685148e-07
6.20090363403063e-07
6.22364246674541e-07
6.23033205707685e-07
6.23213831663759e-07
6.23258891946604e-07
6.23269163380886e-07
6.23271086509397e-07
6.23271175705002e-07
6.23270948107432e-07
6.23270694664541e-07
6.23270463148107e-07
6.23270258537642e-07
6.23270077852778e-07
6.2326991819725e-07
6.23269777409246e-07
6.23269654213185e-07
6.23269547885078e-07
6.23269457990701e-07
6.23269384370849e-07
6.2326932749154e-07
6.23269289174892e-07
6.23269279707017e-07
6.23269297566215e-07
6.23269310371134e-07
6.23269336960146e-07
6.2326939537113e-07
6.23269475407317e-07
6.23269555596083e-07
6.23269526829927e-07
6.23268755106952e-07
6.2326467107046e-07
6.23247519666696e-07
6.23180879671235e-07
6.22938502637081e-07
6.2211459377196e-07
6.19516428509954e-07
6.11997047227044e-07
5.92298335935355e-07
5.46390511817005e-07
4.5327354257873e-07
2.93533630785497e-07
7.57787324851268e-08
4.32539917630364e-09
9.09095934778863e-08
1.9894347023144e-06
8.18883459006292e-06
1.29384383120733e-05
1.57791702810053e-05
1.71902460466823e-05
1.77895426774079e-05
1.80122096122386e-05
1.8085964664992e-05
1.81080835604429e-05
1.81141626063673e-05
1.81157050324967e-05
1.81160638288187e-05
1.81161343995371e-05
1.81161400623982e-05
1.81161339946357e-05
1.81161267184342e-05
1.81161199940128e-05
1.81161140468683e-05
1.81161088117358e-05
1.81161042039857e-05
1.81161001606169e-05
1.81160966401137e-05
1.81160936172432e-05
1.81160910797158e-05
1.81160890265714e-05
1.81160874690974e-05
1.81160864714521e-05
1.8116086419785e-05
1.8116087115156e-05
1.81160874196572e-05
1.81160883334047e-05
1.81160901363988e-05
1.81160925740703e-05
1.81160948587232e-05
1.81160930748194e-05
1.81160651203411e-05
1.8115923607987e-05
1.8115340307161e-05
1.81131042947423e-05
1.81050815370835e-05
1.80782073960497e-05
1.79948150921258e-05
1.77576973258227e-05
1.71483695658493e-05
1.57573813924e-05
1.29958325974102e-05
8.35423586045046e-06
2.09550519273386e-06
1.00562797420663e-07
3.10885960739411e-07
8.64129104540789e-06
3.98382449630065e-05
6.25967293058758e-05
7.61829905391359e-05
8.29983804377029e-05
8.59378595035258e-05
8.70495230621007e-05
8.7424521048763e-05
8.75390189276996e-05
8.75710417513348e-05
8.75793106783016e-05
8.75812757025029e-05
8.75816809297432e-05
8.75817264091886e-05
8.75817036777143e-05
8.75816724044419e-05
8.75816428756905e-05
8.75816166232446e-05
8.75815934760436e-05
8.75815730808121e-05
8.75815551637456e-05
8.7581539544131e-05
8.75815261140737e-05
8.75815148174044e-05
8.75815056467771e-05
8.75814986602624e-05
8.75814941803292e-05
8.75814941569869e-05
8.75814970352876e-05
8.75814980453309e-05
8.75815017654279e-05
8.75815093219142e-05
8.75815195364124e-05
8.75815281253315e-05
8.75815135311592e-05
8.75813584493375e-05
8.75806100269818e-05
8.75775676572494e-05
8.75660185554722e-05
8.75249694359084e-05
8.73888475230425e-05
8.69711009842899e-05
8.57974001334569e-05
8.2818205852772e-05
7.6093576452252e-05
6.28437950687117e-05
4.05402584469889e-05
9.03713960207268e-06
3.36593441432022e-07
5.33319341203261e-07
1.49541042402476e-05
6.84192671502221e-05
0.000106435571577516
0.000128903576778901
0.000140153732014438
0.000145021326218386
0.000146873302439825
0.000147502821794722
0.000147696694082294
0.000147751423914409
0.000147765701240775
0.000147769138369476
0.000147769866361877
0.000147769961839133
0.000147769931492177
0.000147769884917536
0.000147769840061048
0.000147769799928119
0.000147769764416245
0.000147769733026903
0.000147769705356123
0.000147769681138702
0.00014776966021595
0.000147769642503048
0.000147769627981484
0.000147769616727581
0.000147769609161361
0.000147769608113659
0.000147769611606645
0.00014776961413658
0.000147769617781595
0.000147769628085452
0.000147769642422938
0.000147769654266501
0.00014776962793694
0.000147769372651391
0.000147768164987827
0.000147763237517462
0.000147744454313697
0.000147677406134659
0.000147454206051776
0.000146767000432681
0.000144831260395597
0.000139907238898799
0.000128764951487002
0.000106713260543081
6.92671447798015e-05
1.54413926762563e-05
5.64728141016778e-07
7.29672143747563e-07
2.05194783738719e-05
9.301835790871e-05
0.000143606645118963
0.000173305175200782
0.000188165114466886
0.000194613805876003
0.000197080249263322
0.000197924238423755
0.000198186150148207
0.000198260712330463
0.000198280347212422
0.000198285131247211
0.000198286169952755
0.000198286324649073
0.000198286296751073
0.000198286242916064
0.000198286189623939
0.000198286141529177
0.000198286098760535
0.000198286060793299
0.000198286027171178
0.00019828599759249
0.000198285971875113
0.000198285949922088
0.000198285931706511
0.000198285917299284
0.000198285907045419
0.000198285902938801
0.000198285904997855
0.000198285908610748
0.000198285912500439
0.000198285923138337
0.000198285938360024
0.000198285951443277
0.000198285911475458
0.000198285572718714
0.000198284013130303
0.000198277628174008
0.000198253194870434
0.000198165614827035
0.000197872939129661
0.000196968849758242
0.000194415423132755
0.000187906396021642
0.000173147097552107
0.00014384782988052
9.38117530467881e-05
2.09947345890025e-05
7.61298926122981e-07
8.91027762072638e-07
2.51341456594441e-05
0.000113168085278476
0.000173748146256917
0.0002091607369123
0.000226882875416737
0.000234596455965608
0.000237560670359385
0.000238581008898997
0.00023889980361634
0.000238991247829111
0.000239015534876486
0.000239021517586856
0.000239022846517969
0.000239023065772062
0.000239023048161379
0.000239022993780447
0.00023902293787658
0.000239022886837972
0.000239022841150251
0.000239022800361485
0.000239022764030575
0.000239022731860703
0.000239022703671062
0.00023902267936569
0.000239022658915821
0.000239022642380759
0.000239022630007147
0.000239022622822342
0.000239022622957989
0.000239022625399556
0.00023902262904769
0.000239022638234311
0.000239022651548745
0.000239022662000406
0.000239022604090218
0.000239022200296372
0.000239020373067456
0.000239012877735012
0.000238984109202022
0.000238880636061093
0.000238533736803376
0.000237459215755855
0.000234417918402279
0.000226652800358187
0.000209021099508213
0.000173953868964004
0.000113848326724086
2.55596169278632e-05
9.20706935703176e-07
1.0161256570853e-06
2.87561065542216e-05
0.000128920926462288
0.000197167918459725
0.000236961066651225
0.000256890266243086
0.000265589051473679
0.00026894598052792
0.000270107519068385
0.000270472602287716
0.000270578025642055
0.00027060623927015
0.000270613257919043
0.000270614848721011
0.000270615132683259
0.000270615130415651
0.000270615080364403
0.000270615026120788
0.000270614975840677
0.000270614930447745
0.000270614889631656
0.000270614853014793
0.000270614820336318
0.000270614791435556
0.000270614766228089
0.000270614744688604
0.000270614726865619
0.000270614712939212
0.000270614703476373
0.0002706147000433
0.000270614700581982
0.00027061470443427
0.000270614710357949
0.00027061471967589
0.000270614724055554
0.000270614648551479
0.000270614194016149
0.000270612166490245
0.000270603845028641
0.000270571834175837
0.000270456384406871
0.000270068330936829
0.000268863707000984
0.000265448473105188
0.000256718455138536
0.00023687862014211
0.000197376101909687
0.000129510171926268
2.91324114663702e-05
1.04359543387932e-06
1.10818113308443e-06
3.14588293773936e-05
0.000140702424408567
0.000214631628376411
0.000257680347453601
0.000279262597465629
0.000288707433760955
0.000292365698541351
0.000293637194932429
0.000294038905018551
0.00029415557967349
0.000294187012713599
0.000294194899884824
0.000294196718078686
0.000294197063084292
0.00029419707911133
0.000294197036367894
0.000294196986458054
0.000294196939285029
0.000294196896246764
0.000294196857212211
0.000294196821895266
0.000294196790089564
0.000294196761666066
0.000294196736559041
0.000294196714750126
0.000294196696278363
0.000294196681273734
0.000294196670056896
0.000294196663356784
0.000294196661310018
0.000294196662789206
0.000294196667025427
0.000294196670926707
0.000294196667369053
0.000294196576007188
0.000294196083400413
0.000294193909048885
0.000294184989857588
0.000294150624535419
0.000294026419970212
0.000293608091597703
0.000292307273522288
0.00028861463065
0.00027916765634555
0.000257687009551937
0.000214890787667558
0.00014125732351356
3.18044736709641e-05
1.13408515015984e-06
1.1727641686681e-06
3.33834010319813e-05
0.000149150521841096
0.000227148880746613
0.000272542229480547
0.000295326169583504
0.000305319802581907
0.000309202766841957
0.000310557488027359
0.000310987364728894
0.00031111283844589
0.000311146835078934
0.000311155428514316
0.000311157437310092
0.000311157837120572
0.000311157871962239
0.000311157837764901
0.000311157793474762
0.000311157750587974
0.000311157710968125
0.000311157674673492
0.000311157641519898
0.000311157611363388
0.000311157584110179
0.000311157559716271
0.000311157538172346
0.00031115751951034
0.000311157503823055
0.000311157491305808
0.000311157482318192
0.000311157477061506
0.000311157475651343
0.000311157475874825
0.000311157476071244
0.000311157463633519
0.000311157359034576
0.000311156839431152
0.000311154560497657
0.000311145221730053
0.000311109200004291
0.000310978800393127
0.000310538926270388
0.000309169340768379
0.000305277804856595
0.000295316156013277
0.000272657865000195
0.000227499806246539
0.000149729930291346
3.3720428214527e-05
1.19797413524904e-06
1.21613032213363e-06
3.46957068299427e-05
0.000154971579201849
0.000235787280854798
0.000282816979024892
0.000306448583022383
0.000316834236718192
0.000320879977712367
0.000322295906571993
0.000322746831366336
0.000322878991059105
0.000322914970457924
0.000322924121235481
0.000322926284498384
0.000322926731144955
0.000322926783554583
0.000322926757778351
0.000322926719350016
0.000322926681050202
0.000322926645163857
0.000322926611927896
0.000322926581257533
0.000322926553073398
0.000322926527311497
0.000322926503949388
0.000322926482987186
0.000322926464452153
0.000322926448409828
0.000322926434983419
0.00032292642436783
0.000322926416701701
0.000322926412012172
0.000322926409220908
0.000322926405364652
0.000322926385372917
0.000322926271451847
0.000322925731043797
0.000322923379701241
0.000322913755580646
0.000322876606234967
0.000322741967589557
0.000322287273670501
0.000320870193527466
0.000316840927756316
0.000306522471907684
0.000283047876914647
0.000236253926893948
0.000155618795532095
3.50416758156933e-05
1.2413724041832e-06
1.24410065429678e-06
3.55553381873108e-05
0.000158834469486875
0.000241537712689586
0.000289674568602507
0.000313886489796341
0.000324544107528059
0.000328704417604453
0.000330164093118462
0.000330630304710432
0.000330767401819217
0.000330804871237107
0.000330814449005817
0.000330816733190723
0.000330817218333654
0.000330817286397215
0.00033081726783018
0.000330817234824434
0.000330817200843079
0.000330817168517988
0.000330817138240108
0.000330817110007816
0.000330817083788865
0.000330817059559495
0.000330817037317154
0.000330817017071063
0.000330816998845967
0.000330816982688094
0.000330816968675814
0.000330816956920863
0.000330816947509001
0.000330816940413638
0.000330816934864107
0.000330816927505673
0.000330816902100882
0.000330816780834836
0.000330816225266631
0.000330813825279069
0.000330804013230211
0.00033076612133758
0.000330628678546889
0.000330164134055863
0.000328715363600248
0.000324593967690935
0.000314036552632532
0.00029001520676212
0.000242125967523328
0.000159571716761756
3.59205472212369e-05
1.26982312573921e-06
1.26148626645187e-06
3.60979566874442e-05
0.000161308948005655
0.000245237268811765
0.000294100911960072
0.000318698643233693
0.000329539593139792
0.000333778288347834
0.00033526836403008
0.000335745371577366
0.000335886014138279
0.000335924572132907
0.000335934467686858
0.000335936843652364
0.000335937359025937
0.000335937439508158
0.000335937427528961
0.0003359373991709
0.000335937368923273
0.00033593733970847
0.000335937312043152
0.000335937285994746
0.000335937261572062
0.000335937238780084
0.000335937217632779
0.000335937198146984
0.000335937180346458
0.000335937164264367
0.000335937149950266
0.000335937137468548
0.00033593712686494
0.000335937118072416
0.000335937110386949
0.000335937100308577
0.000335937071043752
0.000335936944362234
0.000335936378259708
0.000335933946610218
0.000335924014721249
0.00033588564973291
0.000335746413002903
0.000335275538087432
0.000333806327084575
0.000329625357204936
0.000318913212222925
0.000294537660485573
0.000245938725789295
0.000162139839032955
3.64860130445182e-05
1.28787523506202e-06
1.27193216243236e-06
3.64289570062056e-05
0.000162842526274831
0.000247542156551079
0.000296869172414632
0.000321716215328835
0.000332677349830527
0.000336968216124954
0.000338478847362522
0.00033896327441559
0.000339106394485498
0.000339145726299136
0.000339155851875857
0.000339158295647155
0.000339158833707577
0.00033915892395491
0.00033915891734527
0.000339158892759519
0.000339158865573038
0.000339158838936081
0.00033915881346239
0.000339158789272732
0.00033915876640813
0.000339158744894297
0.000339158724757902
0.000339158706021733
0.000339158688709355
0.000339158672845329
0.000339158658460775
0.000339158645591095
0.000339158634252906
0.000339158624348617
0.000339158615174074
0.00033915860315988
0.00033915857123869
0.000339158440797613
0.000339157867690639
0.00033915541609072
0.000339145410177611
0.000339106753344039
0.000338966405726079
0.000338491593617998
0.000337009623606794
0.000332791370924993
0.000321982233091438
0.000297384431378314
0.000248339826213443
0.000163758098194483
3.68388200514858e-05
1.29899014513179e-06
1.27801585889822e-06
3.66246023441651e-05
0.000163764135228317
0.00024893555645448
0.000298549871583885
0.000323553687167304
0.000334591523303018
0.000338916203576757
0.000340440372071435
0.000340929765932137
0.00034107457236949
0.000341114439948729
0.000341124727653515
0.000341127220238847
0.000341127774948132
0.000341127872510335
0.000341127870021797
0.000341127848381076
0.0003411278236224
0.000341127799057459
0.000341127775371218
0.000341127752723783
0.000341127731179282
0.000341127710778133
0.000341127691555781
0.000341127673539444
0.000341127656752589
0.000341127641214393
0.000341127626944158
0.000341127613958854
0.000341127602254809
0.000341127591712065
0.000341127581612166
0.000341127568345965
0.000341127534707147
0.000341127401815876
0.000341126824265806
0.00034112436051797
0.000341114310301122
0.000341075478979503
0.000340934464676619
0.000340457279508655
0.000338967591139097
0.000334726722473158
0.000323858631940354
0.000299125545080859
0.000249809250527363
0.000164749178008115
3.70527818154238e-05
1.30564670060308e-06
1.28145889558318e-06
3.6736927621899e-05
0.000164302322420868
0.000249754560881082
0.000299542350366689
0.000324642221924031
0.000335727771563494
0.000340073818906833
0.000341606680522594
0.000342099316684024
0.000342245242476483
0.00034228547177644
0.000342295870900019
0.000342298397733429
0.000342298964391267
0.000342299067363635
0.000342299067942854
0.000342299048566994
0.000342299025706328
0.000342299002786701
0.000342298980544337
0.000342298959167644
0.000342298938736658
0.000342298919301151
0.000342298900902242
0.000342298883570034
0.000342298867328058
0.000342298852191944
0.000342298838173476
0.000342298825277911
0.000342298813487624
0.000342298802667022
0.000342298792083818
0.000342298778104508
0.000342298743450951
0.000342298609078025
0.000342298028857716
0.000342295557981305
0.000342285482066495
0.00034224654951685
0.000342105146884855
0.000341626573380772
0.000340132352433286
0.000335878163009671
0.000324975268272136
0.000300162151713057
0.000250684786549975
0.000165340259851025
3.71791768994413e-05
1.30953248434196e-06
1.28335660567671e-06
3.67997053827447e-05
0.000164608330797767
0.000250223482998717
0.000300113432031212
0.000325270730141686
0.000336385249167659
0.000340744477086527
0.000342282788812188
0.000342777491458387
0.000342924142676507
0.000342964610425832
0.000342975084317369
0.000342977634595369
0.000342978209658088
0.000342978316586523
0.000342978319547695
0.000342978301933593
0.000342978280567719
0.000342978258966061
0.000342978237903752
0.000342978217589918
0.000342978198114692
0.000342978179532973
0.000342978161889055
0.000342978145214492
0.000342978129532869
0.000342978114857437
0.00034297810119512
0.000342978088543448
0.000342978076875594
0.000342978066045209
0.000342978055309509
0.000342978041020064
0.000342978005861478
0.000342977870693589
0.000342977288987097
0.000342974814111958
0.000342964723767284
0.000342925734175505
0.000342784111657463
0.000342304748363246
0.000340807938753075
0.000336546116964981
0.000325623226584141
0.000300764015730977
0.000251193619349139
0.000165684180392825
3.72520473826371e-05
1.31174766381607e-06
1.2843772127172e-06
3.68339264257619e-05
0.000164778053506299
0.000250485472484581
0.000300434186851383
0.00032562503291527
0.000336756743228108
0.000341123919096775
0.000342665571181863
0.000343161561421742
0.000343308672266701
0.000343349293724894
0.000343359816713603
0.000343362382722616
0.000343362963607685
0.000343363073482627
0.000343363078342986
0.000343363062131939
0.000343363041970265
0.000343363021448311
0.000343363001373032
0.000343362981970367
0.000343362963335845
0.000343362945526234
0.000343362928586739
0.000343362912549592
0.000343362897438185
0.00034336288326436
0.000343362870031418
0.000343362857731724
0.000343362846332159
0.000343362835679125
0.000343362825022647
0.000343362810704952
0.000343362775391336
0.000343362639889737
0.000343362057454404
0.000343359580467214
0.000343349482299306
0.000343310461460714
0.000343168717700766
0.00034268891668518
0.000341190666368345
0.000336924582089957
0.000325990490717488
0.000301105382620932
0.000251482543012207
0.00016587973506274
3.72931187224891e-05
1.31298290923813e-06
1.28491360083374e-06
3.68521498993141e-05
0.000164870022831319
0.000250628533035813
0.00030061031599211
0.000325820341258655
0.000336962037370603
0.000341333904885748
0.000342877561167869
0.000343374336794218
0.000343521732748347
0.000343562451253704
0.000343573005868112
0.000343575582285443
0.000343576167209097
0.000343576279330831
0.00034357628574769
0.000343576270691849
0.000343576251534326
0.000343576231927089
0.000343576212705627
0.000343576194111824
0.000343576176242198
0.000343576159152719
0.000343576142887592
0.000343576127479043
0.000343576112950332
0.000343576099312098
0.000343576086564992
0.000343576074697261
0.000343576063671359
0.000343576053328703
0.000343576042914418
0.000343576028764683
0.000343575993534399
0.000343575858004043
0.000343575275314383
0.000343572797325286
0.000343562695100633
0.000343523657631901
0.000343381848670646
0.000342901810813381
0.000341402777460046
0.000337134367998235
0.000326194146488883
0.000301294818588733
0.000251643074768589
0.000165988558495434
3.73157818293339e-05
1.31365758990916e-06
1.28518933482161e-06
3.68616408944637e-05
0.000164918775189233
0.000250704985142469
0.000300704999471293
0.000325925771654931
0.000337073154216099
0.000341447736988672
0.000342992572219944
0.000343489817507896
0.000343637386876081
0.000343678165511749
0.000343688740175058
0.000343691323431456
0.000343691911189586
0.000343692025069654
0.000343692032799046
0.000343692018734859
0.000343692000452362
0.00034369198165358
0.000343691963200845
0.000343691945345854
0.000343691928188593
0.000343691911783842
0.000343691896172667
0.000343691881387102
0.000343691867450048
0.000343691854371411
0.000343691842149285
0.000343691830768261
0.0003436918201874
0.000343691810244586
0.000343691800181514
0.000343691786330086
0.000343691751338693
0.000343691615973142
0.000343691033316525
0.000343688554960621
0.000343678450768144
0.000343639404722905
0.000343497561512016
0.00034301739824487
0.000341517948237241
0.000337248296923768
0.000326304790492719
0.000301397816791329
0.000251730470363012
0.000166047901386843
3.73280390929545e-05
1.31401889999207e-06
1.28532794641253e-06
3.68664764680072e-05
0.000164944073346717
0.000250745005321754
0.000300754882610081
0.00032598156729427
0.000337132130022528
0.000341508256162913
0.000343053772460392
0.000343551293550372
0.000343698966522954
0.000343739781803153
0.000343750369025796
0.000343752956784308
0.000343753546579664
0.000343753661882683
0.000343753670753648
0.000343753657568474
0.000343753640075176
0.00034375362201618
0.000343753604279164
0.000343753587125545
0.00034375357065358
0.000343753554913711
0.000343753539946917
0.000343753525786091
0.000343753512452858
0.000343753499956613
0.00034375348829283
0.000343753477442341
0.000343753467361277
0.00034375345788489
0.000343753448252989
0.000343753434793687
0.000343753400150421
0.000343753265080464
0.000343752682639428
0.000343750204285418
0.000343740099270609
0.000343701048991489
0.00034355918820995
0.000343078959795978
0.000341579292105052
0.000337308989596104
0.000326363755336576
0.000301452747379848
0.000251777137775009
0.000166079640185602
3.73345410737247e-05
1.31420868699419e-06
1.28539591766871e-06
3.68688831195877e-05
0.000164956917569178
0.000250765526690839
0.0003007806483778
0.000326010533306926
0.000337162846546713
0.000341539836170046
0.000343085739669735
0.000343583420127211
0.000343731154029524
0.000343771991339414
0.000343782586379593
0.000343785177141486
0.000343785768454544
0.000343785884953424
0.000343785894844426
0.000343785882457182
0.000343785865696738
0.000343785848335738
0.000343785831284193
0.000343785814810216
0.000343785799009192
0.00034378578392813
0.000343785769605858
0.000343785756072437
0.00034378574335224
0.000343785731454822
0.000343785720372654
0.000343785710082628
0.000343785700538292
0.000343785691573375
0.000343785682427239
0.000343785669424435
0.000343785635203517
0.000343785500516975
0.000343784918410433
0.000343782440277399
0.000343772335067242
0.000343733282861789
0.000343591413321472
0.000343111151651523
0.000341611371936636
0.000337340733068592
0.00032639460413794
0.000301481502314224
0.000251801591796395
0.000166096293534669
3.73379233541237e-05
1.31430640819911e-06
1.28542817538824e-06
3.68700463698832e-05
0.00016496327349745
0.000250775808703869
0.000300793675382052
0.000326025268813629
0.000337178533221569
0.000341555999773683
0.000343102120525126
0.000343599891833165
0.000343747661107458
0.000343788511533529
0.000343799111444345
0.000343801704263098
0.000343802296764684
0.000343802414318659
0.000343802425147673
0.00034380241350005
0.000343802397446153
0.000343802380771831
0.000343802364402816
0.000343802348609062
0.000343802333482083
0.000343802319064181
0.000343802305392102
0.000343802292496329
0.000343802280402881
0.000343802269121528
0.000343802258641515
0.00034380224893598
0.000343802239956249
0.000343802231535676
0.000343802222915523
0.000343802210416558
0.000343802176672381
0.000343802042434025
0.000343801460751701
0.000343798982987245
0.000343788877945567
0.000343749825061309
0.000343607951401986
0.000343127673148569
0.000341627836627293
0.000337357026242785
0.000326410440130618
0.000301496267128021
0.000251814153989078
0.000166104853745428
3.73396450332615e-05
1.31435558092113e-06
1.28544266738619e-06
3.68705830963391e-05
0.000164966295800899
0.000250780788735082
0.000300800069528808
0.000326032564891158
0.000337186341354035
0.000341564069006401
0.00034311031052986
0.000343608133119619
0.000343755922762404
0.000343796780985618
0.000343807383976051
0.000343809978264138
0.000343810571770285
0.000343810690324244
0.000343810702039831
0.000343810691097162
0.000343810675757258
0.000343810659790441
0.000343810644128286
0.000343810629036343
0.000343810614599567
0.000343810600858029
0.000343810587849037
0.000343810575603376
0.000343810564148032
0.000343810553492465
0.000343810543623077
0.000343810534510203
0.000343810526103119
0.000343810518235933
0.00034381051015458
0.000343810498175485
0.000343810464927183
0.000343810331163789
0.000343809749958921
0.000343807272655473
0.00034379716799769
0.00034375811515142
0.000343616239905419
0.000343135953906658
0.000341636089480377
0.000337365193408886
0.000326418377592554
0.000301503665726331
0.000251820445509897
0.000166109138515258
3.73404968297817e-05
1.31437956145478e-06
1.28544841226718e-06
3.68708077737376e-05
0.000164967598052695
0.000250783015115955
0.000300803006132004
0.000326035971189897
0.000337190021129089
0.000341567890970425
0.000343114199312547
0.000343612050692086
0.000343759852103503
0.000343800715077079
0.000343811320132508
0.000343813915566093
0.000343814510017928
0.000343814629585345
0.000343814642193217
0.000343814631991352
0.00034381461741514
0.000343814602212478
0.000343814587308696
0.000343814572960512
0.000343814559247956
0.000343814546211233
0.00034381453388851
0.000343814522310936
0.000343814511505401
0.000343814501480197
0.00034381449222009
0.000343814483693216
0.000343814475846972
0.000343814468516093
0.000343814460951862
0.000343814449465442
0.000343814416680876
0.000343814283360541
0.000343813702621651
0.000343811225790201
0.000343801121607325
0.000343762069276464
0.000343620194048566
0.000343139905464715
0.000341640029192967
0.000337369093769628
0.000326422169036552
0.000301507198343863
0.000251823444568691
0.000166111178470591
3.73408978626761e-05
1.31439064666633e-06
1.28544888478545e-06
3.68708464132652e-05
0.000164967948138839
0.000250783722661592
0.000300804036267784
0.000326037235202035
0.000337191429415002
0.000341569377083626
0.000343115723004236
0.000343613591055022
0.000343761399670713
0.000343802265877192
0.000343812872587628
0.000343815469107221
0.000343816064567242
0.000343816185235522
0.000343816198827599
0.000343816189463109
0.000343816175742459
0.000343816161393154
0.000343816147318643
0.000343816133766617
0.000343816120816691
0.000343816108512032
0.000343816096892935
0.000343816085990933
0.000343816075831922
0.000343816066422366
0.000343816057746337
0.000343816049770004
0.000343816042437569
0.000343816035581831
0.000343816028454431
0.000343816017360992
0.00034381598492375
0.00034381585191303
0.000343815271480746
0.000343812794950993
0.0003438026911229
0.000343763639429651
0.000343621765132375
0.000343141477310314
0.00034164159938095
0.000337370652566188
0.000326423688909542
0.000301508618004754
0.000251824652876289
0.000166112010851185
3.73410661214691e-05
1.31439544706345e-06
1.28544493130573e-06
3.6870735604137e-05
0.000164967610458942
0.000250783379377456
0.000300803772136829
0.000326037061811734
0.000337191323923746
0.000341569312117187
0.000343115678922081
0.000343613556810793
0.000343761369910847
0.000343802238321831
0.000343812846293342
0.000343815443706688
0.000343816040040379
0.000343816161710296
0.000343816176215328
0.000343816167638649
0.000343816154725088
0.00034381614120884
0.000343816127945672
0.000343816115174894
0.000343816102980072
0.000343816091409098
0.000343816080504724
0.000343816070298577
0.000343816060815108
0.000343816052058677
0.00034381604401322
0.000343816036642494
0.000343816029886205
0.000343816023571276
0.000343816016942645
0.000343816006304962
0.000343815974284044
0.000343815841653416
0.000343815261563701
0.000343812785389057
0.000343802682075077
0.000343763631399872
0.00034362175934331
0.000343141476275689
0.000341641607267156
0.000337370674727708
0.000326423729889454
0.000301508678687695
0.000251824728768962
0.000166112087179417
3.73410771593577e-05
1.31439524835812e-06
1.28543739204512e-06
3.68704863637895e-05
0.000164966513421034
0.000250781917952643
0.000300802170242494
0.000326035429929699
0.000337189699728319
0.000341567700909812
0.000343114076863477
0.000343611959840629
0.000343759775463854
0.000343800645193241
0.000343811253947758
0.000343813851926318
0.000343814448873149
0.000343814571310948
0.000343814586549821
0.000343814578606827
0.000343814566300503
0.000343814553492498
0.000343814540936444
0.000343814528862274
0.000343814517359095
0.000343814506479639
0.000343814496269086
0.000343814486759688
0.000343814477975093
0.000343814469918463
0.000343814462573426
0.000343814455901051
0.000343814449835529
0.000343814444196045
0.000343814438219027
0.000343814428215084
0.000343814396819652
0.000343814264810121
0.000343813685327919
0.000343811209866345
0.000343801107665196
0.000343762059158275
0.000343620192201094
0.000343139921074574
0.000341640078092439
0.000337369197756437
0.000326422349175839
0.000301507461562278
0.000251823767436244
0.00016611148434505
3.73409561541228e-05
1.3143920578244e-06
1.28542291704765e-06
3.68699997768572e-05
0.000164964222212904
0.000250778697696197
0.000300798498457569
0.000326031571621989
0.000337185778177567
0.000341563763173238
0.000343110137183812
0.000343608021260008
0.000343755838054814
0.000343796708649719
0.00034380731803097
0.000343809916516862
0.000343810514059035
0.000343810637207074
0.000343810653189536
0.000343810645894424
0.000343810634094958
0.000343810621956256
0.000343810610072744
0.000343810598663377
0.000343810587821742
0.000343810577604979
0.000343810568061256
0.00034381055922449
0.000343810551118708
0.000343810543746137
0.00034381053708894
0.000343810531103606
0.000343810525716899
0.000343810520739453
0.000343810515401144
0.000343810506020848
0.000343810475248559
0.000343810343877297
0.00034380976507459
0.000343807290533991
0.000343797190051164
0.000343758145463931
0.000343616288427449
0.000343136041595508
0.000341636254050218
0.000337365490381648
0.000326418866976955
0.000301504376278405
0.000251821318098306
0.000166109951678344
3.73406821804895e-05
1.31438517190901e-06
1.28539498711228e-06
3.686905758315e-05
0.000164959707078477