/*--------------------------------*- C++ -*----------------------------------*\
  =========                 |
  \\      /  F ield         | OpenFOAM: The Open Source CFD Toolbox
   \\    /   O peration     | Website:  https://openfoam.org
    \\  /    A nd           | Version:  10
     \\/     M anipulation  |
\*---------------------------------------------------------------------------*/
FoamFile
{
    format      ascii;
    class       volScalarField;
    location    "2.6";
    object      nut;
}
// * * * * * * * * * * * * * * * * * * * * * * * * * * * * * * * * * * * * * //

dimensions      [0 2 -1 0 0 0 0];

internalField   nonuniform List<scalar> 
2500
(
3.02392918504399e-14
5.59196315869419e-13
2.2405336777082e-12
3.51618924113258e-12
4.26302830071759e-12
4.62532580898403e-12
4.77561587408307e-12
4.83021785690592e-12
4.8479306152183e-12
4.85314157217885e-12
4.85454861527362e-12
4.85489964245097e-12
4.85497966851707e-12
4.85499466961893e-12
4.85499538347083e-12
4.8549936321675e-12
4.85499166854858e-12
4.8549898787408e-12
4.85498830053426e-12
4.85498690382061e-12
4.85498567019196e-12
4.8549845833404e-12
4.85498363230759e-12
4.85498280778813e-12
4.8549821118858e-12
4.85498154402089e-12
4.85498110257368e-12
4.85498080579375e-12
4.85498073351973e-12
4.85498087118834e-12
4.85498096880689e-12
4.85498117294825e-12
4.85498162244714e-12
4.85498223847961e-12
4.85498285552401e-12
4.85498262323281e-12
4.85497660237207e-12
4.85494478173922e-12
4.85481116261129e-12
4.85429204837343e-12
4.85240400803645e-12
4.84598604867689e-12
4.82574725972478e-12
4.76717383272258e-12
4.61372702322425e-12
4.25611782768288e-12
3.53075876846293e-12
2.28642334703542e-12
5.90229210316412e-13
3.3695189244063e-14
2.85382237339946e-12
1.40568006594785e-10
5.78741601900474e-10
9.14507721986218e-10
1.11533516222316e-09
1.21509096405474e-09
1.25745736082123e-09
1.27319820257062e-09
1.27841204724908e-09
1.27997564547951e-09
1.28040537640941e-09
1.28051441218723e-09
1.28053977623376e-09
1.28054476652995e-09
1.28054516857638e-09
1.28054474150728e-09
1.28054422821354e-09
1.28054375414123e-09
1.28054333523777e-09
1.28054296639591e-09
1.28054264224625e-09
1.2805423584951e-09
1.28054211163918e-09
1.28054189841625e-09
1.28054171928793e-09
1.28054157516858e-09
1.28054146516877e-09
1.28054139465766e-09
1.28054139151208e-09
1.28054144000581e-09
1.28054146127281e-09
1.28054152642902e-09
1.28054165210511e-09
1.28054182184316e-09
1.28054198217983e-09
1.28054185539832e-09
1.2805398786214e-09
1.28052987477483e-09
1.28048864048405e-09
1.28033057669347e-09
1.27976344572119e-09
1.2778636902336e-09
1.27196855518039e-09
1.25520608732999e-09
1.21213039862476e-09
1.11379438424884e-09
9.1856417289292e-10
5.90431338834013e-10
1.48061991771312e-10
3.15683818558828e-12
9.80864210762031e-12
2.45466794395706e-09
7.86069298953911e-07
1.23525685789103e-06
1.50341955376116e-06
1.63793845512549e-06
1.69595528985505e-06
1.71789591126354e-06
1.72529704027981e-06
1.72755679515695e-06
1.72818880123437e-06
1.7283519973152e-06
1.7283907773331e-06
1.72839877484316e-06
1.72839967272888e-06
1.72839922423007e-06
1.72839860709281e-06
1.72839802445532e-06
1.72839750686906e-06
1.72839705051861e-06
1.72839664894212e-06
1.72839629688065e-06
1.7283959903678e-06
1.72839572591586e-06
1.72839550290039e-06
1.72839532235527e-06
1.72839518442484e-06
1.72839509583e-06
1.7283950955725e-06
1.72839515189765e-06
1.72839517181857e-06
1.7283952460205e-06
1.72839539344503e-06
1.72839559229839e-06
1.72839576151769e-06
1.72839547381446e-06
1.72839241312319e-06
1.72837764300868e-06
1.72831759917136e-06
1.72808966748353e-06
1.72727952029523e-06
1.72459298457313e-06
1.71634813661978e-06
1.69318305210431e-06
1.63438222237037e-06
1.50165440962511e-06
1.2401321980643e-06
7.99920968427753e-07
2.56709792043974e-09
1.06195483379874e-11
1.68772482366742e-11
4.26022895850518e-09
1.35380540142868e-06
2.10616354792664e-06
2.55082070799946e-06
2.77346626180893e-06
2.86979676810519e-06
2.90644727313484e-06
2.91890531768683e-06
2.92274198008161e-06
2.92382506046106e-06
2.92410760127492e-06
2.92417561728239e-06
2.92419002309841e-06
2.92419191214605e-06
2.92419131128642e-06
2.92419038940371e-06
2.92418950159901e-06
2.92418870750246e-06
2.92418800467841e-06
2.92418738370714e-06
2.92418683719122e-06
2.92418635953199e-06
2.92418594612992e-06
2.92418559523325e-06
2.92418530791199e-06
2.92418508521955e-06
2.92418493507852e-06
2.92418491406625e-06
2.92418498293693e-06
2.92418503311406e-06
2.92418510609579e-06
2.92418530856176e-06
2.92418558974882e-06
2.92418582421307e-06
2.92418530358006e-06
2.92418025185118e-06
2.92415635419546e-06
2.92405884309897e-06
2.92368713546497e-06
2.92236028560121e-06
2.91794323920739e-06
2.90434360265944e-06
2.86603541920418e-06
2.76858818067357e-06
2.54807723760395e-06
2.11165847381184e-06
1.37058158546078e-06
4.39902814016513e-09
1.78708510649082e-11
2.31256512324547e-11
5.8538172534214e-09
1.84294293429573e-06
2.84531874139462e-06
3.43377958673145e-06
3.72821938758696e-06
3.85599500944728e-06
3.90486533701512e-06
3.92158814783109e-06
3.92677765399373e-06
3.92825502358711e-06
3.9286440663467e-06
3.92873885416938e-06
3.92875943403022e-06
3.92876249863598e-06
3.92876194551064e-06
3.92876087847922e-06
3.92875982227169e-06
3.9287588692428e-06
3.92875802176014e-06
3.92875726942086e-06
3.92875660357007e-06
3.92875601844751e-06
3.92875550923428e-06
3.92875507389692e-06
3.92875471288161e-06
3.92875442735882e-06
3.92875422382348e-06
3.92875414217722e-06
3.92875418284555e-06
3.92875425450832e-06
3.92875433211716e-06
3.92875454206617e-06
3.92875484229938e-06
3.92875510159043e-06
3.92875430987256e-06
3.92874759804694e-06
3.9287166973831e-06
3.92859018805676e-06
3.92810607188866e-06
3.92637077180982e-06
3.92057171465972e-06
3.90265809186546e-06
3.85206430122371e-06
3.72309322551749e-06
3.43064759129261e-06
2.8500976153953e-06
1.85866168118288e-06
5.9893798534089e-09
2.41276521316352e-11
2.8257950652635e-11
7.17440654472303e-09
2.24334891945818e-06
3.44427971608778e-06
4.1462949945901e-06
4.49761552461084e-06
4.65052771582806e-06
4.70928947373898e-06
4.72951634953831e-06
4.73583603011296e-06
4.73764878893909e-06
4.73813024623999e-06
4.73824884390277e-06
4.73827518750465e-06
4.73827953353179e-06
4.73827918416675e-06
4.73827810586412e-06
4.73827699741578e-06
4.73827598552187e-06
4.73827507977983e-06
4.73827427107952e-06
4.73827355096388e-06
4.73827291360352e-06
4.7382723548113e-06
4.7382718728327e-06
4.7382714673589e-06
4.73827113947642e-06
4.73827089396218e-06
4.73827075134987e-06
4.7382707539537e-06
4.73827080238067e-06
4.7382708749448e-06
4.73827105667779e-06
4.73827132006217e-06
4.73827152726873e-06
4.73827037936341e-06
4.73826237489173e-06
4.73822615301449e-06
4.73807756912801e-06
4.73750727350573e-06
4.73545605989189e-06
4.72857924767348e-06
4.70727828506682e-06
4.6469884817812e-06
4.49305467694774e-06
4.14352705357018e-06
3.44835812200212e-06
2.2568332709216e-06
7.29584388068041e-09
2.91989455653245e-11
3.22334648294162e-11
8.21002380237728e-09
2.55611374549485e-06
3.9092636468946e-06
4.69825248485978e-06
5.09339325227723e-06
5.26586584741049e-06
5.33242431597241e-06
5.35545434879159e-06
5.36269291634549e-06
5.3647831628368e-06
5.36534255870096e-06
5.36548171793514e-06
5.3655132586717e-06
5.36551888861158e-06
5.36551884349108e-06
5.36551785095527e-06
5.36551677532483e-06
5.36551577831872e-06
5.36551487826277e-06
5.3655140689015e-06
5.36551334290113e-06
5.36551269506158e-06
5.3655121219762e-06
5.36551162210398e-06
5.36551119497567e-06
5.36551084152845e-06
5.36551056529711e-06
5.36551037757444e-06
5.36551030944232e-06
5.3655103201153e-06
5.36551039657507e-06
5.3655105138689e-06
5.36551069842083e-06
5.36551078525468e-06
5.36550928824975e-06
5.36550027620101e-06
5.36546007632371e-06
5.36529508576916e-06
5.36466040207312e-06
5.36237136124336e-06
5.35467736025029e-06
5.33079307069081e-06
5.26307859459709e-06
5.08998677397403e-06
4.69661792406985e-06
3.91339152402447e-06
2.56779670847011e-06
8.31745572734535e-09
3.31047240517781e-11
3.51568083965563e-11
8.98231495751356e-09
2.78988594602881e-06
4.25578065696846e-06
5.10936615436806e-06
5.53730657698025e-06
5.72458203093897e-06
5.79711934158511e-06
5.82233099762109e-06
5.83029623867411e-06
5.8326097022834e-06
5.8332329667662e-06
5.83338935593406e-06
5.83342540751044e-06
5.83343224827174e-06
5.83343256596612e-06
5.83343171834596e-06
5.83343072864008e-06
5.83342979321151e-06
5.83342893979137e-06
5.83342816573545e-06
5.83342746543218e-06
5.83342683476612e-06
5.83342627110978e-06
5.83342577322426e-06
5.83342534074166e-06
5.83342497442943e-06
5.83342467685341e-06
5.83342445438158e-06
5.8334243214796e-06
5.83342428087104e-06
5.83342431020786e-06
5.83342439413618e-06
5.83342447141955e-06
5.83342440086343e-06
5.8334225893069e-06
5.83341282176727e-06
5.83336970808311e-06
5.83319285557571e-06
5.83251144890465e-06
5.83004868006004e-06
5.82175392671776e-06
5.79596087245788e-06
5.72274190698762e-06
5.53542407475484e-06
5.10949831098636e-06
4.26091945789197e-06
2.80088867419178e-06
9.08100340812169e-09
3.59785459232686e-11
3.72067940679994e-11
9.53204721752936e-09
2.95745673919696e-06
4.50406266859961e-06
5.40415371499077e-06
5.85592953712517e-06
6.05409022350105e-06
6.1310843259158e-06
6.15794667370291e-06
6.16647056566147e-06
6.1689585450283e-06
6.1696326536073e-06
6.1698030500578e-06
6.1698428817589e-06
6.16985080940467e-06
6.16985150020791e-06
6.16985082206179e-06
6.16984994379261e-06
6.16984909335187e-06
6.16984830769799e-06
6.1698475879747e-06
6.169846930542e-06
6.16984633253848e-06
6.1698457920924e-06
6.16984530834754e-06
6.16984488111677e-06
6.16984451103173e-06
6.16984419992987e-06
6.16984395168486e-06
6.16984377343057e-06
6.16984366916632e-06
6.16984364118427e-06
6.16984364557409e-06
6.16984364943038e-06
6.16984340278506e-06
6.16984132870739e-06
6.16983102564803e-06
6.16978583739585e-06
6.16960066191446e-06
6.1688863983765e-06
6.16630074503361e-06
6.15757861747525e-06
6.13042153035686e-06
6.05325746524711e-06
5.85573098867848e-06
5.40644663910798e-06
4.51102110775184e-06
2.96894566624231e-06
9.62827877614717e-09
3.80065737959767e-11
3.8582969127463e-11
9.90681977270976e-09
3.07289867156749e-06
4.67537675634496e-06
5.60791906923187e-06
6.076505314471e-06
6.28244031118179e-06
6.36266247758432e-06
6.39073863941541e-06
6.39967993420923e-06
6.40230050146285e-06
6.40301392948146e-06
6.40319537830243e-06
6.40323827314245e-06
6.40324712955474e-06
6.40324816872702e-06
6.40324765756904e-06
6.40324689553538e-06
6.40324613605024e-06
6.40324542442402e-06
6.40324476535156e-06
6.40324415715238e-06
6.40324359825177e-06
6.40324308737965e-06
6.4032426240947e-06
6.40324220839826e-06
6.40324184083048e-06
6.40324152269075e-06
6.40324125642196e-06
6.40324104588956e-06
6.40324089384582e-06
6.40324080082846e-06
6.40324074544682e-06
6.4032406689505e-06
6.40324027251246e-06
6.40323801357104e-06
6.40322729791263e-06
6.40318067361398e-06
6.40298983891015e-06
6.40225321220833e-06
6.39958349028842e-06
6.39056745831289e-06
6.3624684680697e-06
6.2825729860717e-06
6.07797044370231e-06
5.61249750358783e-06
4.68462980168777e-06
3.08573220030761e-06
1.00056056403501e-08
3.93837908955219e-11
3.94704609410457e-11
1.01522930959336e-08
3.14950020226565e-06
4.78940815399769e-06
5.74390534095777e-06
6.22399923052836e-06
6.4353272394173e-06
6.51782128837579e-06
6.54676493453379e-06
6.55600936122667e-06
6.55872783536779e-06
6.55947080974593e-06
6.55966072557457e-06
6.55970601822814e-06
6.55971563799838e-06
6.55971698757614e-06
6.55971661937094e-06
6.55971596486259e-06
6.55971529100864e-06
6.55971464999691e-06
6.55971404957911e-06
6.55971348972309e-06
6.5597129697893e-06
6.55971248930663e-06
6.5597120482255e-06
6.5597116467285e-06
6.55971128530622e-06
6.55971096487559e-06
6.55971068699053e-06
6.55971045386677e-06
6.55971026720589e-06
6.55971012648056e-06
6.55971001640723e-06
6.55970987046752e-06
6.55970936669227e-06
6.55970696210288e-06
6.55969594581594e-06
6.55964835686886e-06
6.5594537954814e-06
6.55870244387309e-06
6.55597711522184e-06
6.5467657451473e-06
6.51803833346507e-06
6.43631590676525e-06
6.22697479953646e-06
5.75065979621905e-06
4.80107255980351e-06
3.16411895114002e-06
1.02565729997426e-08
4.02865316753477e-11
4.00220674593102e-11
1.03072346382625e-08
3.19856750934173e-06
4.86276785994957e-06
5.8316767018836e-06
6.31942091637629e-06
6.53438426085872e-06
6.61843262417425e-06
6.64797908032413e-06
6.65743758146307e-06
6.6602263587433e-06
6.66099091859533e-06
6.66118713580633e-06
6.66123424838152e-06
6.66124446759602e-06
6.66124606342336e-06
6.66124582584824e-06
6.66124526349876e-06
6.66124466368085e-06
6.66124408434247e-06
6.6612435357286e-06
6.66124301917634e-06
6.66124253486047e-06
6.66124208287999e-06
6.66124166351216e-06
6.6612412770909e-06
6.66124092408736e-06
6.66124060515944e-06
6.66124032128978e-06
6.66124007375532e-06
6.66123986346309e-06
6.66123968908414e-06
6.66123953665797e-06
6.66123933678487e-06
6.66123875646864e-06
6.66123624449512e-06
6.66122501931937e-06
6.6611768025336e-06
6.66097986478291e-06
6.66021913196491e-06
6.65745823061609e-06
6.64812133234421e-06
6.61898859833312e-06
6.53608486072284e-06
6.32367556728753e-06
5.84033691356516e-06
4.8766769316009e-06
3.21504310662012e-06
1.04180383452743e-08
4.08592861882237e-11
4.03534823171066e-11
1.04017479691629e-08
3.22897685268199e-06
4.90847147788181e-06
5.88656852228244e-06
6.37925632815074e-06
6.59660280764435e-06
6.68168566857687e-06
6.71163971947768e-06
6.7212453414259e-06
6.72408324501653e-06
6.7248631488522e-06
6.72506392716157e-06
6.72511238425091e-06
6.7251230533207e-06
6.7251248427795e-06
6.72512471167684e-06
6.72512422412819e-06
6.72512368500958e-06
6.7251231567871e-06
6.72512265163076e-06
6.72512217193542e-06
6.72512171851467e-06
6.72512129187853e-06
6.72512089255599e-06
6.72512052099904e-06
6.72512017767508e-06
6.72511986307124e-06
6.72511957780475e-06
6.72511932257762e-06
6.72511909771953e-06
6.72511890129543e-06
6.72511871934272e-06
6.72511848108457e-06
6.72511784809558e-06
6.72511526157405e-06
6.7251038975071e-06
6.72505528512352e-06
6.72485687954517e-06
6.72409035972025e-06
6.72130743055949e-06
6.71189246168245e-06
6.68250672935025e-06
6.59886371143422e-06
6.38453114819299e-06
5.89678550413753e-06
4.92428833416026e-06
3.24713157312433e-06
1.05187782737792e-08
4.12119270624181e-11
4.05464955902083e-11
1.04576116893132e-08
3.24725129396576e-06
4.93610097960557e-06
5.91989483095159e-06
6.41569125505673e-06
6.63455863817088e-06
6.72031199076606e-06
6.7505344696494e-06
6.76023857758775e-06
6.76310991987423e-06
6.76390044731619e-06
6.76410444043616e-06
6.76415386545118e-06
6.7641648646489e-06
6.76416679915337e-06
6.76416674976766e-06
6.76416632061585e-06
6.76416582963808e-06
6.76416534250158e-06
6.76416487278857e-06
6.76416442367398e-06
6.76416399642956e-06
6.76416359185693e-06
6.76416321065907e-06
6.76416285337582e-06
6.76416252047264e-06
6.76416221232992e-06
6.76416192933048e-06
6.76416167181093e-06
6.76416143969857e-06
6.76416123061484e-06
6.76416103031362e-06
6.76416076722985e-06
6.76416010018247e-06
6.76415746507659e-06
6.76414601290835e-06
6.76409715964579e-06
6.76389787557593e-06
6.76312789585653e-06
6.76033174711206e-06
6.75086972322942e-06
6.72133094487048e-06
6.63723947843145e-06
6.42173795214905e-06
5.93130976217301e-06
4.95342531061606e-06
3.26678353994497e-06
1.05798719806918e-08
4.14231151487328e-11
4.06557294029913e-11
1.04896843472702e-08
3.25792286316359e-06
4.95234079597678e-06
5.93957442331982e-06
6.43727551625091e-06
6.65708899848766e-06
6.74326603358042e-06
6.77366088635966e-06
6.78342928516021e-06
6.78632282289949e-06
6.78712052282677e-06
6.78732672524788e-06
6.78737682936172e-06
6.78738806548545e-06
6.78739010726748e-06
6.78739011871217e-06
6.78738973447029e-06
6.78738928112824e-06
6.78738882661678e-06
6.78738838553456e-06
6.7873879616177e-06
6.78738755645337e-06
6.78738717102867e-06
6.7873868061591e-06
6.78738646244172e-06
6.78738614034322e-06
6.78738584017368e-06
6.78738556216686e-06
6.78738530642711e-06
6.78738507260499e-06
6.78738485801199e-06
6.78738464812773e-06
6.78738437090416e-06
6.78738368373602e-06
6.78738101925099e-06
6.78736951413553e-06
6.78732051952275e-06
6.78712072589605e-06
6.78634873895688e-06
6.78354489014912e-06
6.77405533734985e-06
6.74442668378689e-06
6.66007108377216e-06
6.44387943459551e-06
5.95186435793395e-06
4.97078608198846e-06
3.27850394772516e-06
1.06159620615051e-08
4.15463956560535e-11
4.07159355932733e-11
1.05076093844071e-08
3.26399058172402e-06
4.96163886666361e-06
5.95089817687693e-06
6.44973796038761e-06
6.6701258669105e-06
6.75656425553253e-06
6.78706717695804e-06
6.79687655152302e-06
6.79978447354218e-06
6.80058690162451e-06
6.80079458660263e-06
6.80084515559455e-06
6.80085655837737e-06
6.80085867860394e-06
6.80085873728041e-06
6.80085838797255e-06
6.80085796427096e-06
6.80085753589375e-06
6.80085711821111e-06
6.80085671536996e-06
6.80085632915769e-06
6.80085596066309e-06
6.80085561076457e-06
6.80085528008797e-06
6.80085496910109e-06
6.80085467806678e-06
6.80085440712244e-06
6.80085415621924e-06
6.80085392482525e-06
6.80085371003867e-06
6.800853497131e-06
6.80085321375822e-06
6.80085251657633e-06
6.80084983632855e-06
6.80083830174442e-06
6.80078922784296e-06
6.80058914809361e-06
6.79981603009259e-06
6.79700782126259e-06
6.78750260805403e-06
6.75782262497846e-06
6.67331568592745e-06
6.45672755121016e-06
5.96379848927102e-06
4.98087553436493e-06
3.28532341967623e-06
1.06367689230402e-08
4.16166739173145e-11
4.07483146031355e-11
1.05173804596608e-08
3.2673559110414e-06
4.96683369989609e-06
5.95725823559416e-06
6.45676322450735e-06
6.67749200915957e-06
6.76408799437545e-06
6.79465715053143e-06
6.80449205635119e-06
6.80740909216732e-06
6.80821456809886e-06
6.8084232266121e-06
6.80847410753087e-06
6.80848562576425e-06
6.80848780441702e-06
6.80848790075261e-06
6.80848757926619e-06
6.80848717944299e-06
6.80848677247555e-06
6.8084863743651e-06
6.80848598959188e-06
6.80848562005032e-06
6.80848526686624e-06
6.80848493093612e-06
6.80848461289925e-06
6.80848431321957e-06
6.80848403213205e-06
6.80848376970222e-06
6.8084835257788e-06
6.80848329970516e-06
6.80848308843569e-06
6.80848287709935e-06
6.80848259316686e-06
6.80848189291135e-06
6.80847920604696e-06
6.80846765701144e-06
6.80841854123198e-06
6.80821830636195e-06
6.80744456879099e-06
6.80463395593949e-06
6.79512006344293e-06
6.76541151350932e-06
6.68082005616878e-06
6.46400982377779e-06
5.97056726092301e-06
4.98660444037106e-06
3.28920096606489e-06
1.06484959959134e-08
4.16558625556558e-11
4.07653311983319e-11
1.05225836629478e-08
3.26917948082911e-06
4.96967031022855e-06
5.96075053481187e-06
6.46063581349772e-06
6.68156259983469e-06
6.76825161293778e-06
6.79886050927928e-06
6.80871098816973e-06
6.81163367730085e-06
6.81244107754604e-06
6.81265036315553e-06
6.81270145045834e-06
6.81271304877233e-06
6.8127152719768e-06
6.81271539917649e-06
6.81271510059697e-06
6.81271472068546e-06
6.81271433185635e-06
6.81271395067664e-06
6.81271358194278e-06
6.81271322756878e-06
6.81271288866464e-06
6.81271256610699e-06
6.81271226053504e-06
6.8127119724101e-06
6.81271170194324e-06
6.8127114491475e-06
6.81271121378992e-06
6.81271099512608e-06
6.81271079001156e-06
6.81271058347811e-06
6.81271030287653e-06
6.81270960427388e-06
6.81270691683979e-06
6.81269536276195e-06
6.81264622711739e-06
6.81244591181181e-06
6.81167184450263e-06
6.80885993884983e-06
6.79934135027672e-06
6.76961727432184e-06
6.6849797132399e-06
6.46804793234148e-06
5.97432341865021e-06
4.98978748380282e-06
3.29135873257952e-06
1.06549668675478e-08
4.16772666183999e-11
4.07740782419494e-11
1.05252934358919e-08
3.27014610852105e-06
4.97118615275353e-06
5.96262786152089e-06
6.46272622759646e-06
6.68376576452784e-06
6.77050861603048e-06
6.8011408888556e-06
6.81100068036135e-06
6.81392680802383e-06
6.81473540056466e-06
6.81494508371603e-06
6.81499630662883e-06
6.81500796114738e-06
6.81501021921802e-06
6.81501037244424e-06
6.81501009352863e-06
6.81500973096842e-06
6.81500935817062e-06
6.81500899223446e-06
6.81500863815096e-06
6.81500829790292e-06
6.8150079725767e-06
6.81500766298676e-06
6.81500736976842e-06
6.81500709337592e-06
6.81500683400579e-06
6.81500659162035e-06
6.81500636591413e-06
6.81500615607547e-06
6.81500595888986e-06
6.81500575932106e-06
6.81500548463508e-06
6.81500479076985e-06
6.81500210660418e-06
6.81499055318226e-06
6.81494141026591e-06
6.81474105594566e-06
6.81396681859246e-06
6.81115423387397e-06
6.80163315878698e-06
6.77190082174283e-06
6.68723863812512e-06
6.4702417260185e-06
5.97636561629039e-06
4.9915203224246e-06
3.29253535764681e-06
1.06584665043338e-08
4.16887286395492e-11
4.0778474921707e-11
1.05266739221628e-08
3.27064766682173e-06
4.97197959273128e-06
5.96361684983466e-06
6.46383244247139e-06
6.68493503335257e-06
6.77170848605381e-06
6.80235426292592e-06
6.81221952303831e-06
6.81514770498827e-06
6.81595702412917e-06
6.8161669563131e-06
6.81621826849685e-06
6.81622996341145e-06
6.81623224969804e-06
6.81623242556086e-06
6.81623216407564e-06
6.81623181716491e-06
6.81623145903682e-06
6.81623110729313e-06
6.81623076711763e-06
6.81623044045882e-06
6.81623012831704e-06
6.81622983150502e-06
6.81622955067514e-06
6.81622928625628e-06
6.81622903843489e-06
6.8162288071213e-06
6.81622859193554e-06
6.81622839200782e-06
6.81622820407145e-06
6.8162280130528e-06
6.81622774614272e-06
6.81622705918095e-06
6.81622438087711e-06
6.81621283173065e-06
6.81616368885342e-06
6.8159633182323e-06
6.81518899694426e-06
6.81237606388486e-06
6.80285369722996e-06
6.77311704445894e-06
6.68844195032738e-06
6.47141078235127e-06
5.97745468932051e-06
4.9924455687874e-06
3.29316462581484e-06
1.06603228053941e-08
4.1694748896128e-11
4.07806304569705e-11
1.05273608658163e-08
3.27090227816028e-06
4.97238639411499e-06
5.96412761889637e-06
6.46440665723898e-06
6.68554395367298e-06
6.77233452625151e-06
6.80298798019139e-06
6.8128564001499e-06
6.81578579019864e-06
6.81659554614448e-06
6.81680563333665e-06
6.81685700507326e-06
6.81686873008239e-06
6.81687104008198e-06
6.81687123617153e-06
6.81687099050891e-06
6.81687065813045e-06
6.81687031384339e-06
6.81686997569243e-06
6.81686964899406e-06
6.81686933563984e-06
6.81686903656208e-06
6.8168687525308e-06
6.81686848414222e-06
6.81686823187976e-06
6.81686799593299e-06
6.81686777615273e-06
6.81686757208088e-06
6.81686738279641e-06
6.81686720500245e-06
6.8168670236165e-06
6.81686676575876e-06
6.81686608717217e-06
6.81686341647157e-06
6.81685187395845e-06
6.81680273546453e-06
6.81660236097489e-06
6.81582800150799e-06
6.8130148948368e-06
6.80349186897225e-06
6.77375299557536e-06
6.68907123376703e-06
6.47202233045701e-06
5.97802472975428e-06
4.99293034960369e-06
3.29349476716467e-06
1.06612883223227e-08
4.16978482612165e-11
4.07816529400029e-11
1.05276927747059e-08
3.27102823422115e-06
4.9725901610559e-06
5.96438579319249e-06
6.46469869773393e-06
6.68585484967742e-06
6.77265487721666e-06
6.80331263830575e-06
6.81318285949982e-06
6.81611295086706e-06
6.81692296687337e-06
6.81713315064026e-06
6.81718456316134e-06
6.81719631173786e-06
6.81719864265928e-06
6.81719885734906e-06
6.81719862635288e-06
6.81719830798504e-06
6.81719797731465e-06
6.81719765269807e-06
6.81719733948837e-06
6.81719703950032e-06
6.81719675357286e-06
6.81719648243476e-06
6.81719622669063e-06
6.81719598685649e-06
6.81719576312619e-06
6.81719555528654e-06
6.81719536280505e-06
6.81719518471661e-06
6.8171950177169e-06
6.81719484676113e-06
6.81719459889447e-06
6.81719392976164e-06
6.8171912679486e-06
6.81717973384799e-06
6.8171306026641e-06
6.81693023152025e-06
6.81615585861153e-06
6.8133426703298e-06
6.80381931585192e-06
6.77407931672897e-06
6.68939415588027e-06
6.4723361921431e-06
5.97831736247628e-06
4.99317932937944e-06
3.29366443105698e-06
1.06617796792337e-08
4.16994073709299e-11
4.07821117855095e-11
1.05278457890278e-08
3.2710880884067e-06
4.9726887959079e-06
5.96451244569389e-06
6.46484322306248e-06
6.68600952341473e-06
6.77281472628775e-06
6.80347488144582e-06
6.81334611927167e-06
6.81627661445583e-06
6.81708678505233e-06
6.8172970298801e-06
6.81734847153568e-06
6.81736024003176e-06
6.8173625907822e-06
6.81736282305228e-06
6.81736260603514e-06
6.81736230182556e-06
6.81736198518479e-06
6.81736167458508e-06
6.81736137529212e-06
6.81736108899062e-06
6.81736081647531e-06
6.8173605584861e-06
6.81736031563355e-06
6.81736008845289e-06
6.8173598771318e-06
6.81735968140075e-06
6.81735950067162e-06
6.81735933393867e-06
6.81735917791256e-06
6.81735901764111e-06
6.81735878008341e-06
6.81735812078373e-06
6.81735546838919e-06
6.81734394375675e-06
6.81729482171571e-06
6.81709445818904e-06
6.81632008605167e-06
6.8135068663725e-06
6.80398335853096e-06
6.77424280676257e-06
6.6895559487716e-06
6.47249343521669e-06
5.97846393177375e-06
4.99330396907744e-06
3.2937493179638e-06
1.06620226540965e-08
4.17001672301e-11
4.07822931188896e-11
1.05279097023834e-08
3.27111383598385e-06
4.97273282910085e-06
5.96457053915849e-06
6.46491061863611e-06
6.68608233666258e-06
6.77289035699796e-06
6.80355183639328e-06
6.81342364486208e-06
6.81635437333804e-06
6.81716463811062e-06
6.81737492388054e-06
6.81742638824936e-06
6.8174381754976e-06
6.81744054634427e-06
6.8174407963079e-06
6.81744059398066e-06
6.81744030491483e-06
6.817440003427e-06
6.81743970786557e-06
6.81743942332112e-06
6.81743915138071e-06
6.8174388928417e-06
6.81743864846104e-06
6.81743841885652e-06
6.81743820456143e-06
6.81743800574032e-06
6.81743782209122e-06
6.81743765298237e-06
6.81743749737083e-06
6.81743735197961e-06
6.81743720196266e-06
6.81743697417467e-06
6.81743632407086e-06
6.81743368046224e-06
6.81742216507035e-06
6.81737305239006e-06
6.81717269828529e-06
6.81639833638597e-06
6.81358511713031e-06
6.80406155824687e-06
6.77432077227485e-06
6.68963313591302e-06
6.47256846761342e-06
5.97853384320306e-06
4.99336332311205e-06
3.29378969282996e-06
1.06621369201113e-08
4.17005179706673e-11
4.07823071806408e-11
1.05279204953952e-08
3.27112070323283e-06
4.97274674557224e-06
5.96459082960992e-06
6.46493553517859e-06
6.68611010894435e-06
6.7729196705254e-06
6.80358189435956e-06
6.81345403317501e-06
6.81638490443687e-06
6.81719523329613e-06
6.8174055518786e-06
6.81745703778104e-06
6.81746884502071e-06
6.81747123769674e-06
6.81747150717659e-06
6.81747132145412e-06
6.81747104935374e-06
6.81747076478761e-06
6.81747048567032e-06
6.8174702169134e-06
6.81746996009569e-06
6.81746971607332e-06
6.81746948564537e-06
6.81746926943728e-06
6.81746906796264e-06
6.81746888134973e-06
6.81746870928282e-06
6.81746855109115e-06
6.81746840566842e-06
6.81746826969927e-06
6.81746812834473e-06
6.81746790834964e-06
6.81746726513341e-06
6.81746462766467e-06
6.81745311835317e-06
6.81740401165679e-06
6.81720366459197e-06
6.81642931535383e-06
6.81361611461585e-06
6.80409257105524e-06
6.77435175289274e-06
6.68966389258252e-06
6.47259845742075e-06
5.97856185717991e-06
4.99338716865034e-06
3.29380612290505e-06
1.06621847209463e-08
4.17006693184315e-11
4.07821808226452e-11
1.05278886155718e-08
3.2711139328888e-06
4.97273982532296e-06
5.96458545627135e-06
6.46493194971799e-06
6.68610786480177e-06
6.77291822796421e-06
6.80358086521073e-06
6.81345319887607e-06
6.81638415899122e-06
6.81719453154522e-06
6.81740487512903e-06
6.8174563787529e-06
6.81746820331672e-06
6.81747061585455e-06
6.81747090343783e-06
6.81747073333736e-06
6.81747047724122e-06
6.8174702091943e-06
6.81746994616563e-06
6.81746969290059e-06
6.81746945105636e-06
6.81746922158273e-06
6.81746900532756e-06
6.81746880291809e-06
6.81746861483928e-06
6.8174684411777e-06
6.81746828161491e-06
6.8174681354323e-06
6.81746800143448e-06
6.81746787618952e-06
6.81746774472553e-06
6.81746753376809e-06
6.81746689880763e-06
6.81746426887624e-06
6.81745276635822e-06
6.81740366670484e-06
6.81720332983932e-06
6.81642900080589e-06
6.81361584456317e-06
6.80409239549496e-06
6.77435175490015e-06
6.68966417958277e-06
6.4725991225142e-06
5.97856292421906e-06
4.9933885597298e-06
3.29380756134918e-06
1.06621876296949e-08
4.17006620640656e-11
4.07819407017422e-11
1.05278172087812e-08
3.27109210536816e-06
4.97271073365849e-06
5.96455355665742e-06
6.46489944408055e-06
6.68607550654041e-06
6.77288612526256e-06
6.80354894321999e-06
6.81342137755849e-06
6.81635238763878e-06
6.81716278631713e-06
6.81737314542274e-06
6.81742466025351e-06
6.81743649697545e-06
6.81743892474001e-06
6.81743922687511e-06
6.81743906934047e-06
6.81743882528576e-06
6.81743857128312e-06
6.81743832227632e-06
6.81743808282486e-06
6.81743785469574e-06
6.81743763893475e-06
6.81743743643787e-06
6.81743724784476e-06
6.81743707362444e-06
6.8174369138397e-06
6.817436768166e-06
6.8174366358315e-06
6.81743651553135e-06
6.81743640368024e-06
6.81743628513754e-06
6.81743608674697e-06
6.8174354641897e-06
6.81743284657451e-06
6.81742135610353e-06
6.81737227059108e-06
6.81717195579672e-06
6.8163976697759e-06
6.81358461471245e-06
6.80406140263966e-06
6.77432127879585e-06
6.68963474054159e-06
6.47257159709576e-06
5.97853865382015e-06
4.99336938384868e-06
3.29379553279711e-06
1.06621528355001e-08
4.17005598905911e-11
4.07814805368394e-11
1.05276780312203e-08
3.27104659885704e-06
4.97264676643198e-06
5.96448061354823e-06
6.46482279104122e-06
6.6859975944256e-06
6.77280789022381e-06
6.80347066895355e-06
6.81334312486019e-06
6.81627415810516e-06
6.81708457392773e-06
6.81729494545643e-06
6.81734647034635e-06
6.81735831887353e-06
6.81736076072182e-06
6.817361077602e-06
6.81736093291473e-06
6.81736069891104e-06
6.81736045818052e-06
6.8173602225101e-06
6.81735999624153e-06
6.8173597812307e-06
6.81735957861077e-06
6.81735938933698e-06
6.817359214082e-06
6.81735905332237e-06
6.81735890710233e-06
6.8173587750683e-06
6.81735865635762e-06
6.81735854951813e-06
6.81735845079504e-06
6.81735834491773e-06
6.8173581588939e-06
6.81735754869336e-06
6.81735494373485e-06
6.81734346673821e-06
6.81729439948921e-06
6.81709411877218e-06
6.81631991049227e-06
6.81350705220914e-06
6.80398432208671e-06
6.77424529816843e-06
6.6895610752223e-06
6.47250240169646e-06
5.97847734003662e-06
4.99332070257444e-06
3.29376506676353e-06
1.06620743634646e-08
4.17003404770056e-11
4.07805934990088e-11
1.05274087619566e-08
3.27095699450526e-06
4.97251856816972e-06