/*--------------------------------*- C++ -*----------------------------------*\
  =========                 |
  \\      /  F ield         | OpenFOAM: The Open Source CFD Toolbox
   \\    /   O peration     | Website:  https://openfoam.org
    \\  /    A nd           | Version:  10
     \\/     M anipulation  |
\*---------------------------------------------------------------------------*/
FoamFile
{
    format      ascii;
    class       volScalarField;
    location    "2.6";
    object      omega;
}
// * * * * * * * * * * * * * * * * * * * * * * * * * * * * * * * * * * * * * //

dimensions      [0 0 -1 0 0 0 0];

internalField   nonuniform List<scalar> 
2500
(
128368.482968307
128388.540129038
128381.133032746
128378.495642927
128377.662132269
128377.405807738
128377.329720402
128377.307561086
128377.300764342
128377.298795339
128377.297469629
128377.296720382
128377.296288711
128377.295738271
128377.295234301
128377.294663757
128377.294383879
128377.2940243
128377.293611409
128377.293327464
128377.29306266
128377.292802939
128377.292575329
128377.292476764
128377.292362177
128377.292214104
128377.292171362
128377.292126697
128377.292087659
128377.292125903
128377.292182116
128377.292260777
128377.292406098
128377.292602104
128377.29280278
128377.293020033
128377.29327108
128377.293479162
128377.293944316
128377.294456367
128377.295378823
128377.297731143
128377.305144092
128377.32977686
128377.412220941
128377.675134636
128378.507936428
128381.137800265
128388.651663823
128368.448830296
31855.3790611695
14152.8271653545
14149.3795558716
14147.9814779173
14147.4695817472
14147.2914828686
14147.2333231162
14147.2157091264
14147.2107556479
14147.2094601138
14147.2091105741
14147.2090123167
14147.2089856517
14147.208963751
14147.2089442487
14147.208924002
14147.2089126572
14147.2088988963
14147.2088826299
14147.2088693154
14147.2088521844
14147.2088294737
14147.2088074666
14147.2088024991
14147.2087998738
14147.2087887396
14147.2087877372
14147.2087876513
14147.2087820553
14147.2087893335
14147.2087921703
14147.2087858987
14147.2088054438
14147.2088338315
14147.2088465891
14147.2088541646
14147.2088630652
14147.2088741174
14147.2089126172
14147.2090290309
14147.2094687629
14147.2111104001
14147.2169408887
14147.2364618594
14147.2976713604
14147.477860581
14147.9854983688
14149.3774313343
14152.8907430237
31855.5439045803
31695.1069606143
3520.35030509164
50.6803217172108
50.6750712663504
50.6731406735705
50.6724658536355
50.6722435535848
50.6721754742837
50.6721561607644
50.6721510824461
50.6721497609443
50.672149431566
50.6721494068837
50.672149393123
50.672149382504
50.6721493795672
50.672149378641
50.6721493755992
50.6721493609973
50.6721493477233
50.6721493208271
50.6721492760715
50.6721492251865
50.6721492079977
50.6721492103141
50.6721491975751
50.6721491991468
50.6721492045609
50.672149198605
50.6721492125974
50.6721492129489
50.6721491898786
50.6721492397333
50.672149319675
50.6721493278986
50.6721493188549
50.672149324631
50.6721493310488
50.6721494355195
50.6721498329349
50.6721514424883
50.6721576074791
50.6721795704995
50.6722530838156
50.6724832901447
50.6731615240611
50.6750773561105
50.680329741413
3520.37198507981
31695.6456827816
31599.8990904429
3510.16445029157
50.5384799602798
50.5352833032811
50.5341580357471
50.5337793159328
50.5336572366892
50.5336201339068
50.533609603896
50.533606828397
50.5336061012864
50.5336059371921
50.5336059490185
50.5336059540011
50.5336059597691
50.5336059654625
50.5336059693666
50.5336059719265
50.533605970433
50.5336059719238
50.5336059687008
50.533605950453
50.5336059232397
50.5336059122777
50.533605918834
50.5336059180867
50.5336059179327
50.5336059250962
50.5336059299263
50.5336059342701
50.5336059323221
50.533605917612
50.5336059424125
50.5336059862162
50.5336059845882
50.5336059777153
50.5336059765277
50.5336059666628
50.533606006663
50.5336061856702
50.5336069827809
50.5336101369228
50.5336215378543
50.5336603396941
50.5337846471485
50.5341634023953
50.5352839327509
50.5385053429812
3510.18274588185
31600.5174552485
31552.5014371719
3505.31584529373
50.4727282531167
50.4711978414674
50.4706754826242
50.4705047920136
50.4704506616824
50.470434254199
50.4704295715552
50.4704283285919
50.4704279992036
50.4704279298086
50.4704279432524
50.4704279511835
50.4704279573824
50.4704279620842
50.4704279667991
50.4704279706481
50.4704279719241
50.4704279729859
50.4704279739147
50.4704279697538
50.4704279577138
50.4704279533441
50.4704279580882
50.4704279593661
50.4704279601884
50.4704279649355
50.4704279685253
50.4704279701813
50.470427969174
50.4704279622352
50.4704279728446
50.4704279903538
50.4704279895196
50.4704279871067
50.4704279850621
50.4704279803068
50.4704279863011
50.4704280490858
50.4704283787475
50.4704297053868
50.4704345401908
50.4704511477116
50.4705052061981
50.4706743973281
50.4711940754241
50.4727428324044
3505.32694583617
31552.963461571
31531.9314208496
3503.30658051862
50.4460471114804
50.445422723759
50.4452136630904
50.4451468061775
50.4451258654281
50.4451195204979
50.4451176962919
50.4451172078779
50.4451170772894
50.4451170514277
50.4451170593185
50.4451170646016
50.4451170684521
50.4451170712121
50.4451170742027
50.4451170767225
50.445117078094
50.4451170786304
50.4451170799424
50.4451170789732
50.4451170751419
50.4451170748671
50.4451170765755
50.4451170774839
50.4451170785408
50.445117080943
50.4451170829036
50.4451170838104
50.4451170835282
50.4451170809172
50.4451170849437
50.4451170908484
50.4451170906589
50.445117089821
50.445117088273
50.445117085724
50.4451170855356
50.4451171058941
50.4451172262692
50.4451177212982
50.4451195309953
50.4451257672206
50.4451462656489
50.4452117256275
50.4454186049
50.4460511952641
3503.31193291372
31532.1980940494
31523.935216483
3502.56068026197
50.4363026447906
50.4360760155814
50.4360009205203
50.4359772590173
50.4359699182772
50.4359676934066
50.4359670490576
50.435966874649
50.4359668283364
50.4359668202934
50.4359668237182
50.4359668264067
50.4359668284171
50.4359668299246
50.435966831463
50.435966832739
50.4359668336442
50.4359668340652
50.4359668349653
50.4359668349034
50.4359668341466
50.4359668347715
50.4359668355303
50.4359668361164
50.4359668367625
50.4359668378039
50.4359668387611
50.4359668393643
50.435966839435
50.4359668386832
50.4359668401464
50.435966841989
50.4359668420105
50.4359668417898
50.4359668410557
50.4359668398953
50.4359668392495
50.4359668454088
50.4359668861429
50.4359670559508
50.4359676760333
50.435969810082
50.4359768577751
50.4359996856723
50.4360733389408
50.4363026477397
3502.56285351677
31524.0638238537
31521.0960160133
3502.3075372211
50.4330381709138
50.4329629923409
50.4329381900546
50.4329304479154
50.4329280636756
50.4329273410143
50.4329271304576
50.4329270729165
50.4329270580769
50.4329270560043
50.4329270573293
50.4329270585876
50.4329270596145
50.4329270604341
50.4329270612106
50.4329270618834
50.4329270624619
50.4329270628409
50.4329270634157
50.4329270636555
50.432927063764
50.4329270643368
50.4329270648167
50.4329270652365
50.4329270656538
50.4329270661682
50.432927066694
50.4329270671267
50.4329270673398
50.4329270672791
50.432927067874
50.4329270685004
50.4329270686199
50.43292706866
50.4329270684609
50.432927068077
50.4329270677874
50.432927069635
50.4329270827262
50.432927137344
50.4329273358828
50.4329280161304
50.4329302643201
50.4329376130456
50.4329616626623
50.4330374909743
3502.30830686831
31521.1502037492
31520.161788859
3502.22782893789
50.432021494791
50.4319982779542
50.4319906231631
50.4319882456249
50.4319875175798
50.4319872970874
50.4319872326231
50.4319872149645
50.4319872106487
50.4319872102938
50.4319872109048
50.4319872115426
50.4319872121179
50.4319872126183
50.4319872130912
50.4319872135324
50.4319872139583
50.4319872143209
50.431987214717
50.4319872150482
50.4319872153716
50.4319872157867
50.4319872161606
50.4319872165124
50.4319872168559
50.4319872172124
50.4319872175758
50.4319872179165
50.4319872181706
50.4319872183371
50.4319872186765
50.4319872189907
50.4319872191673
50.4319872193155
50.4319872193697
50.4319872193472
50.4319872193322
50.4319872199571
50.4319872240406
50.4319872407437
50.431987300942
50.4319875057773
50.4319881811927
50.4319903997391
50.4319977256586
50.4320210348794
3502.22807196495
31520.182315825
31519.8739142136
3502.20430228464
50.4317244937979
50.4317177294451
50.4317154961422
50.4317148036694
50.4317145925406
50.4317145287572
50.4317145101516
50.4317145051436
50.4317145040804
50.4317145041842
50.4317145045623
50.4317145049647
50.4317145053576
50.4317145057305
50.4317145060962
50.4317145064598
50.4317145068228
50.4317145071642
50.4317145075067
50.4317145078446
50.4317145081851
50.4317145085376
50.4317145088726
50.4317145091977
50.4317145095165
50.4317145098298
50.4317145101395
50.4317145104395
50.4317145107045
50.4317145109381
50.431714511208
50.4317145114554
50.4317145116607
50.4317145118511
50.4317145120035
50.4317145121225
50.4317145122331
50.431714512522
50.4317145138162
50.4317145187581
50.4317145362317
50.4317145950781
50.4317147881637
50.4317154232508
50.4317175305572
50.4317242813819
3502.20437175526
31519.8810464016
31519.7903605688
3502.19776471507
50.4316428913434
50.4316410135094
50.431640392285
50.4316401995594
50.4316401410297
50.4316401234691
50.4316401184448
50.4316401172084
50.4316401170911
50.4316401173101
50.431640117613
50.4316401179334
50.4316401182596
50.4316401185859
50.4316401189149
50.4316401192477
50.4316401195838
50.4316401199166
50.4316401202479
50.431640120578
50.4316401209077
50.4316401212368
50.4316401215576
50.4316401218718
50.4316401221801
50.4316401224803
50.4316401227729
50.4316401230569
50.431640123324
50.4316401235749
50.4316401238261
50.4316401240616
50.4316401242783
50.4316401244827
50.4316401246676
50.4316401248339
50.431640124989
50.4316401251851
50.4316401256537
50.4316401271258
50.4316401320547
50.4316401483265
50.4316402012594
50.4316403750401
50.4316409525868
50.4316428130057
3502.19778303517
31519.7926684825
31519.7676315549
3502.19607434195
50.431622135389
50.4316216349896
50.4316214691872
50.4316214176857
50.4316214021495
50.431621397593
50.4316213963979
50.4316213962281
50.4316213963719
50.4316213966175
50.4316213968959
50.4316213971888
50.4316213974914
50.4316213978008
50.4316213981163
50.4316213984369
50.4316213987615
50.4316213990874
50.431621399413
50.4316213997375
50.4316214000604
50.4316214003803
50.4316214006946
50.4316214010033
50.4316214013058
50.4316214016003
50.4316214018864
50.4316214021635
50.4316214024292
50.4316214026829
50.4316214029279
50.4316214031609
50.4316214033805
50.4316214035876
50.431621403781
50.4316214039603
50.4316214041276
50.431621404297
50.43162140453
50.4316214050217
50.4316214064243
50.4316214108154
50.4316214248353
50.4316214705799
50.4316216224229
50.431622113897
3502.19607907937
31519.7683368538
31519.7620972892
3502.19569962696
50.4316177242257
50.4316175955255
50.4316175528906
50.4316175396728
50.4316175357732
50.4316175347298
50.4316175345693
50.4316175346873
50.4316175348993
50.4316175351496
50.4316175354192
50.431617535702
50.4316175359956
50.4316175362977
50.4316175366069
50.4316175369215
50.4316175372402
50.4316175375609
50.431617537882
50.4316175382023
50.4316175385206
50.4316175388355
50.4316175391457
50.4316175394504
50.4316175397486
50.4316175400391
50.4316175403212
50.4316175405942
50.4316175408572
50.4316175411094
50.4316175413512
50.4316175415817
50.4316175418001
50.4316175420064
50.4316175422003
50.4316175423815
50.4316175425504
50.4316175427106
50.4316175428778
50.4316175431019
50.4316175435504
50.4316175447519
50.4316175483878
50.4316175600506
50.4316175985646
50.431617723737
3502.19570112209
31519.7623048393
31519.7612098158
3502.19566687414
50.431617513752
50.4316174816934
50.4316174711324
50.4316174679204
50.4316174670608
50.431617466933
50.4316174670412
50.4316174672331
50.4316174674613
50.4316174677109
50.4316174679761
50.4316174682542
50.431617468543
50.4316174688407
50.4316174691456
50.431617469456
50.4316174697704
50.4316174700869
50.4316174704041
50.4316174707205
50.4316174710348
50.4316174713458
50.4316174716522
50.431617471953
50.4316174722474
50.4316174725342
50.4316174728127
50.4316174730823
50.4316174733421
50.4316174735915
50.4316174738302
50.4316174740578
50.4316174742737
50.4316174744777
50.4316174746697
50.4316174748492
50.4316174750164
50.4316174751722
50.4316174753202
50.4316174754726
50.4316174756708
50.4316174760448
50.4316174770062
50.4316174799258
50.4316174894124
50.4316175202997
3502.19566768338
31519.7612713351
31519.7615293282
3502.19571968907
50.4316183414248
50.4316183336937
50.4316183312112
50.4316183305299
50.431618330439
50.4316183305417
50.4316183307167
50.4316183309257
50.4316183311564
50.4316183314041
50.4316183316662
50.4316183319407
50.4316183322259
50.4316183325199
50.4316183328211
50.4316183331277
50.431618333438
50.4316183337506
50.4316183340639
50.4316183343763
50.4316183346867
50.4316183349938
50.4316183352964
50.4316183355934
50.4316183358839
50.4316183361671
50.431618336442
50.4316183367079
50.4316183369643
50.4316183372105
50.431618337446
50.4316183376704
50.4316183378833
50.4316183380845
50.4316183382736
50.4316183384505
50.4316183386152
50.4316183387676
50.4316183389087
50.4316183390411
50.4316183391746
50.4316183393398
50.4316183396337
50.4316183403836
50.4316183426855
50.4316183501163
3502.19572037261
31519.7615500287
31519.7621515231
3502.19579320812
50.431619416874
50.4316194150938
50.4316194145861
50.4316194145255
50.4316194146225
50.4316194147807
50.4316194149707
50.4316194151825
50.4316194154121
50.4316194156574
50.4316194159165
50.4316194161878
50.4316194164695
50.4316194167599
50.4316194170573
50.4316194173601
50.4316194176665
50.431619417975
50.4316194182843
50.4316194185927
50.4316194188991
50.4316194192021
50.4316194195007
50.4316194197938
50.4316194200805
50.4316194203598
50.4316194206309
50.4316194208932
50.431619421146
50.4316194213886
50.4316194216207
50.4316194218418
50.4316194220514
50.4316194222494
50.4316194224355
50.4316194226094
50.4316194227712
50.4316194229207
50.4316194230579
50.4316194231835
50.4316194232994
50.4316194234123
50.4316194235439
50.4316194237711
50.4316194243482
50.4316194261181
3502.19579386987
31519.7621612504
31519.7628472804
3502.19587158968
50.431620549651
50.431620549289
50.4316205492506
50.4316205493373
50.4316205494782
50.4316205496484
50.4316205498406
50.4316205500514
50.4316205502789
50.4316205505215
50.4316205507777
50.4316205510456
50.4316205513238
50.4316205516105
50.4316205519041
50.4316205522029
50.4316205525052
50.4316205528097
50.4316205531147
50.431620553419
50.4316205537212
50.4316205540201
50.4316205543146
50.4316205546036
50.4316205548863
50.4316205551616
50.4316205554288
50.4316205556873
50.4316205559363
50.4316205561753
50.4316205564038
50.4316205566213
50.4316205568276
50.4316205570223
50.4316205572051
50.4316205573759
50.4316205575346
50.4316205576811
50.4316205578152
50.4316205579372
50.4316205580471
50.4316205581462
50.4316205582385
50.4316205583426
50.4316205585166
50.4316205589572
3502.19587224346
31519.762854121
31519.7635604226
3502.19595108358
50.431621695333
50.4316216953005
50.4316216953705
50.4316216954905
50.4316216956404
50.4316216958121
50.4316216960032
50.4316216962121
50.4316216964371
50.4316216966769
50.4316216969299
50.4316216971945
50.431621697469
50.4316216977519
50.4316216980415
50.4316216983361
50.4316216986343
50.4316216989345
50.4316216992353
50.4316216995352
50.4316216998331
50.4316217001277
50.431621700418
50.4316217007028
50.4316217009813
50.4316217012525
50.4316217015157
50.4316217017702
50.4316217020153
50.4316217022505
50.4316217024753
50.4316217026893
50.431621702892
50.4316217030832
50.4316217032627
50.4316217034303
50.4316217035859
50.4316217037293
50.4316217038606
50.4316217039795
50.4316217040862
50.4316217041804
50.4316217042625
50.4316217043376
50.4316217044191
50.431621704555
3502.19595172914
31519.7635664811
31519.7642775743
3502.1960308264
50.4316228438549
50.431622843897
50.4316228439909
50.4316228441175
50.4316228442681
50.4316228444387
50.4316228446281
50.4316228448346
50.431622845057
50.4316228452938
50.4316228455435
50.4316228458046
50.4316228460754
50.4316228463543
50.4316228466398
50.4316228469303
50.4316228472241
50.43162284752
50.4316228478163
50.4316228481119
50.4316228484053
50.4316228486956
50.4316228489814
50.4316228492619
50.4316228495361
50.4316228498031
50.4316228500622
50.4316228503126
50.4316228505537
50.431622850785
50.431622851006
50.4316228512162
50.4316228514153
50.431622851603
50.4316228517791
50.4316228519433
50.4316228520957
50.431622852236
50.4316228523643
50.4316228524805
50.4316228525844
50.4316228526759
50.4316228527543
50.4316228528218
50.4316228528817
50.4316228529488
3502.19603146256
31519.7642833725
31519.7649956333
3502.19611062416
50.4316239929943
50.4316239930525
50.431623993151
50.4316239932781
50.4316239934275
50.4316239935965
50.4316239937838
50.4316239939879
50.4316239942075
50.4316239944412
50.4316239946875
50.431623994945
50.4316239952119
50.4316239954868
50.4316239957681
50.4316239960543
50.4316239963437
50.4316239966351
50.4316239969269
50.431623997218
50.4316239975069
50.4316239977926
50.431623998074
50.4316239983501
50.4316239986199
50.4316239988826
50.4316239991373
50.4316239993836
50.4316239996206
50.4316239998479
50.431624000065
50.4316240002714
50.4316240004668
50.4316240006509
50.4316240008235
50.4316240009843
50.4316240011334
50.4316240012706
50.4316240013958
50.4316240015092
50.4316240016104
50.4316240016994
50.4316240017756
50.4316240018401
50.4316240018943
50.4316240019455
3502.19611125037
31519.7650013007
31519.7657138967
3502.19619043418
50.4316251422705
50.4316251423319
50.4316251424308
50.431625142557
50.4316251427049
50.431625142872
50.4316251430571
50.4316251432587
50.4316251434754
50.431625143706
50.4316251439488
50.4316251442025
50.4316251444655
50.4316251447363
50.4316251450133
50.4316251452951
50.43162514558
50.4316251458668
50.4316251461541
50.4316251464405
50.4316251467248
50.4316251470059
50.4316251472828
50.4316251475543
50.4316251478196
50.4316251480779
50.4316251483284
50.4316251485704
50.4316251488032
50.4316251490264
50.4316251492395
50.431625149442
50.4316251496337
50.4316251498141
50.4316251499831
50.4316251501405
50.4316251502862
50.4316251504202
50.4316251505424
50.4316251506528
50.4316251507514
50.431625150838
50.4316251509121
50.4316251509745
50.4316251510262
50.431625151073
3502.19619104994
31519.7657194593
31519.7664322075
3502.19627024718
50.4316262915807
50.4316262916425
50.4316262917408
50.4316262918659
50.4316262920122
50.4316262921774
50.4316262923602
50.4316262925592
50.431626292773
50.4316262930003
50.4316262932396
50.4316262934895
50.4316262937485
50.431626294015
50.4316262942877
50.4316262945649
50.4316262948453
50.4316262951275
50.4316262954101
50.4316262956918
50.4316262959715
50.4316262962479
50.4316262965202
50.4316262967871
50.4316262970479
50.4316262973017
50.4316262975478
50.4316262977854
50.431626298014
50.4316262982331
50.4316262984421
50.4316262986407
50.4316262988285
50.4316262990052
50.4316262991706
50.4316262993245
50.4316262994669
50.4316262995976
50.4316262997167
50.4316262998241
50.43162629992
50.431626300004
50.4316263000759
50.4316263001364
50.4316263001861
50.4316263002309
3502.19627085233
31519.766437674
31519.7671505312
3502.19635006109
50.4316274409021
50.4316274409637
50.4316274410613
50.4316274411852
50.4316274413298
50.4316274414931
50.4316274416736
50.4316274418699
50.4316274420808
50.4316274423048
50.4316274425405
50.4316274427865
50.4316274430414
50.4316274433037
50.431627443572
50.4316274438447
50.4316274441205
50.4316274443979
50.4316274446758
50.4316274449528
50.4316274452277
50.4316274454995
50.431627445767
50.4316274460293
50.4316274462855
50.4316274465348
50.4316274467764
50.4316274470097
50.4316274472341
50.4316274474489
50.4316274476539
50.4316274478484
50.4316274480323
50.4316274482053
50.431627448367
50.4316274485174
50.4316274486563
50.4316274487838
50.4316274488998
50.4316274490042
50.4316274490972
50.4316274491787
50.4316274492483
50.4316274493067
50.4316274493546
50.4316274493977
3502.19635065538
31519.7671558985
31519.7678688592
3502.19642987538
50.4316285902285
50.4316285902898
50.4316285903867
50.4316285905094
50.4316285906524
50.4316285908137
50.4316285909919
50.4316285911855
50.4316285913933
50.431628591614
50.431628591846
50.4316285920882
50.4316285923389
50.4316285925969
50.4316285928607
50.4316285931289
50.4316285934
50.4316285936728
50.4316285939459
50.4316285942182
50.4316285944883
50.4316285947553
50.4316285950181
50.4316285952758
50.4316285955273
50.4316285957721
50.4316285960092
50.4316285962381
50.4316285964581
50.4316285966687
50.4316285968696
50.4316285970601
50.4316285972401
50.4316285974093
50.4316285975673
50.4316285977142
50.4316285978497
50.4316285979738
50.4316285980866
50.431628598188
50.4316285982782
50.431628598357
50.4316285984243
50.4316285984805
50.4316285985264
50.4316285985679
3502.19643045874
31519.7678741277
31519.7685871889
3502.19650968984
50.4316297395573
50.4316297396184
50.4316297397145
50.431629739836
50.4316297399774
50.4316297401367
50.4316297403126
50.4316297405035
50.4316297407082
50.4316297409255
50.4316297411538
50.431629741392
50.4316297416387
50.4316297418924
50.4316297421517
50.4316297424152
50.4316297426817
50.4316297429498
50.4316297432181
50.4316297434856
50.431629743751
50.4316297440132
50.4316297442713
50.4316297445243
50.4316297447712
50.4316297450113
50.431629745244
50.4316297454684
50.4316297456841
50.4316297458905
50.4316297460872
50.4316297462738
50.4316297464498
50.4316297466152
50.4316297467695
50.4316297469128
50.4316297470449
50.4316297471657
50.4316297472753
50.4316297473737
50.4316297474609
50.431629747537
50.4316297476018
50.4316297476558
50.4316297476997
50.4316297477394
3502.1965102622
31519.7685923592
31519.7693055189
3502.19658950432
50.4316308888865
50.4316308889472
50.4316308890427
50.431630889163
50.4316308893027
50.43163088946
50.4316308896335
50.4316308898216
50.4316308900233
50.4316308902371
50.4316308904618
50.4316308906961
50.4316308909386
50.4316308911879
50.4316308914428
50.4316308917018
50.4316308919636
50.4316308922269
50.4316308924905
50.4316308927532
50.4316308930139
50.4316308932713
50.4316308935246
50.4316308937729
50.4316308940152
50.4316308942508
50.4316308944789
50.431630894699
50.4316308949103
50.4316308951125
50.431630895305
50.4316308954875
50.4316308956597
50.4316308958212
50.431630895972
50.4316308961116
50.4316308962403
50.4316308963578
50.4316308964641
50.4316308965595
50.4316308966438
50.4316308967171
50.4316308967794
50.4316308968311
50.431630896873
50.431630896911
3502.19659006567
31519.7693105875
31519.770023848
3502.1966693187
50.4316320382141
50.4316320382746
50.4316320383694
50.4316320384885
50.4316320386265
50.4316320387818
50.4316320389529
50.4316320391384
50.4316320393369
50.4316320395473
50.4316320397683
50.4316320399987
50.4316320402371
50.4316320404821
50.4316320407325
50.4316320409869
50.4316320412441
50.4316320415027
50.4316320417616
50.4316320420195
50.4316320422754
50.4316320425281
50.4316320427767
50.4316320430203
50.431632043258
50.431632043489
50.4316320437127
50.4316320439283
50.4316320441353
50.4316320443333
50.4316320445217
50.4316320447002
50.4316320448685
50.4316320450262
50.4316320451733
50.4316320453094
50.4316320454346
50.4316320455488
50.431632045652
50.4316320457443
50.4316320458256
50.4316320458962
50.431632045956
50.4316320460054
50.4316320460452
50.4316320460813
3502.196669869
31519.7700288183
31519.7707421751
3502.19674913286
50.4316331875385
50.4316331875987
50.4316331876927
50.4316331878106
50.4316331879469
50.4316331881002
50.431633188269
50.4316331884517
50.4316331886471
50.4316331888542
50.4316331890715
50.4316331892979
50.4316331895322
50.4316331897729
50.4316331900189
50.4316331902688
50.4316331905214
50.4316331907753
50.4316331910295
50.4316331912827
50.4316331915338
50.4316331917818
50.4316331920258
50.4316331922648
50.4316331924979
50.4316331927244
50.4316331929436
50.4316331931548
50.4316331933576
50.4316331935514
50.4316331937357
50.4316331939102
50.4316331940746
50.4316331942286
50.431633194372
50.4316331945047
50.4316331946265
50.4316331947374
50.4316331948374
50.4316331949266
50.431633195005
50.4316331950728
50.4316331951301
50.4316331951771
50.4316331952148
50.4316331952493
3502.19674967226
31519.7707470466
31519.7714604992
3502.19682894668
50.4316343368579
50.4316343369178
50.431634337011
50.4316343371276
50.4316343372622
50.4316343374136
50.4316343375799
50.4316343377599
50.4316343379523
50.431634338156
50.4316343383696
50.4316343385922
50.4316343388224
50.4316343390589
50.4316343393005
50.431634339546
50.431634339794
50.4316343400433
50.4316343402928
50.4316343405413
50.4316343407878
50.4316343410312
50.4316343412705
50.4316343415049
50.4316343417335
50.4316343419555
50.4316343421703
50.4316343423773
50.4316343425758
50.4316343427654
50.4316343429457
50.4316343431163
50.4316343432769
50.4316343434272
50.431634343567
50.4316343436962
50.4316343438146
50.4316343439223
50.4316343440191
50.4316343441053
50.4316343441808
50.4316343442458
50.4316343443007
50.4316343443454
50.4316343443809
50.4316343444137
3502.19682947523
31519.7714652739
31519.7721788191
3502.19690876003
50.4316354861706
50.43163548623
50.4316354863224
50.4316354864377
50.4316354865707
50.43163548672
50.431635486884
50.4316354870612
50.4316354872506
50.4316354874509
50.431635487661
50.4316354878798
50.4316354881059
50.4316354883383
50.4316354885756
50.4316354888166
50.4316354890601
50.4316354893049
50.4316354895498
50.4316354897938
50.4316354900357
50.4316354902745
50.4316354905093
50.4316354907391
50.4316354909632
50.4316354911808
50.4316354913913
50.431635491594
50.4316354917884
50.4316354919739
50.4316354921502
50.4316354923169
50.4316354924738
50.4316354926205
50.4316354927567
50.4316354928825
50.4316354929976
50.431635493102
50.4316354931958
50.431635493279
50.4316354933517
50.431635493414
50.4316354934664
50.4316354935088
50.4316354935423
50.4316354935735
3502.19690927793
31519.7721834972
31519.7728971338
3502.1969885728
50.4316366354749
50.4316366355337
50.4316366356253
50.4316366357394
50.4316366358706
50.4316366360178
50.4316366361794
50.431636636354
50.4316366365404
50.4316366367375
50.431636636944
50.431636637159
50.4316366373812
50.4316366376095
50.4316366378426
50.4316366380792
50.4316366383184
50.4316366385587
50.4316366387991
50.4316366390386
50.431636639276
50.4316366395103
50.4316366397406
50.431636639966
50.4316366401858
50.4316366403991
50.4316366406053
50.4316366408038
50.4316366409941
50.4316366411756
50.431636641348
50.431636641511
50.4316366416641
50.4316366418072
50.43163664194
50.4316366420624
50.4316366421743
50.4316366422756
50.4316366423664
50.4316366424466
50.4316366425165
50.4316366425762
50.4316366426262
50.4316366426664
50.4316366426979
50.4316366427275
3502.19698908014
31519.772901717
31519.7736154423
3502.19706838487
50.431637784769
50.4316377848272
50.431637784918
50.4316377850307
50.4316377851601
50.4316377853053
50.4316377854646
50.4316377856366
50.43163778582
50.4316377860138
50.4316377862169
50.4316377864282
50.4316377866466
50.4316377868708
50.4316377870998
50.4316377873322
50.431637787567
50.431637787803
50.4316377880391
50.4316377882741
50.4316377885071
50.431637788737
50.4316377889629
50.4316377891841
50.4316377893995
50.4316377896086
50.4316377898107
50.4316377900051
50.4316377901914
50.4316377903691
50.4316377905377
50.4316377906969
50.4316377908465
50.431637790986
50.4316377911155
50.4316377912346
50.4316377913433
50.4316377914416
50.4316377915294
50.4316377916068
50.4316377916739
50.431637791731
50.4316377917788
50.4316377918168
50.4316377918464
50.4316377918746
3502.19706888189
31519.7736199304
31519.7743337436
3502.19714819614
50.4316389340515
50.431638934109
50.4316389341988
50.4316389343102
50.4316389344378
50.431638934581
50.4316389347379
50.4316389349072
50.4316389350878
50.4316389352785
50.4316389354782
50.431638935686
50.4316389359005
50.4316389361209
50.4316389363458
50.4316389365741
50.4316389368048
50.4316389370365
50.4316389372683
50.431638937499
50.4316389377277
50.4316389379533
50.4316389381751
50.431638938392
50.4316389386033
50.4316389388083
50.4316389390063
50.4316389391968
50.4316389393792
50.431638939553
50.431638939718
50.4316389398736
50.4316389400196
50.4316389401558
50.431638940282
50.431638940398
50.4316389405036
50.4316389405989
50.4316389406838
50.4316389407584
50.4316389408229
50.4316389408776
50.4316389409232
50.4316389409591
50.4316389409869
50.4316389410138
3502.19714868317
31519.7743381423
31519.7750520367
3502.19722800648
50.4316400833206
50.4316400833772
50.4316400834661
50.4316400835761
50.4316400837018
50.431640083843
50.4316400839977
50.4316400841644
50.4316400843421
50.4316400845297
50.4316400847262
50.4316400849305
50.4316400851414
50.4316400853579
50.431640085579
50.4316400858033
50.4316400860299
50.4316400862575
50.4316400864851
50.4316400867118
50.4316400869363
50.4316400871578
50.4316400873754
50.4316400875882
50.4316400877955
50.4316400879965
50.4316400881907
50.4316400883773
50.4316400885559
50.4316400887262
50.4316400888875
50.4316400890396
50.4316400891823
50.4316400893152
50.4316400894382
50.4316400895511
50.4316400896538
50.4316400897462
50.4316400898283
50.4316400899003
50.4316400899622
50.4316400900145
50.4316400900581
50.4316400900921
50.4316400901181
50.431640090144
3502.19722848383
31519.7750563486
31519.7757703206
3502.1973078158
50.4316412325748
50.4316412326304
50.4316412327185
50.4316412328269
50.4316412329507
50.4316412330899
50.4316412332423
50.4316412334066
50.4316412335816
50.4316412337662
50.4316412339595
50.4316412341604
50.4316412343678
50.4316412345807
50.431641234798
50.4316412350184
50.4316412352411
50.4316412354647
50.4316412356884
50.431641235911
50.4316412361315
50.431641236349
50.4316412365627
50.4316412367716
50.431641236975
50.4316412371722
50.4316412373625
50.4316412375455
50.4316412377205
50.4316412378872
50.4316412380451
50.4316412381939
50.4316412383333
50.431641238463
50.431641238583