/*--------------------------------*- C++ -*----------------------------------*\
  =========                 |
  \\      /  F ield         | OpenFOAM: The Open Source CFD Toolbox
   \\    /   O peration     | Website:  https://openfoam.org
    \\  /    A nd           | Version:  10
     \\/     M anipulation  |
\*---------------------------------------------------------------------------*/
FoamFile
{
    format      ascii;
    class       volScalarField;
    location    "2.6";
    object      p;
}
// * * * * * * * * * * * * * * * * * * * * * * * * * * * * * * * * * * * * * //

dimensions      [1 -1 -2 0 0 0 0];

internalField   nonuniform List<scalar> 
2500
(
100069.578747619
100069.578749584
100069.578750384
100069.578750812
100069.57875094
100069.578750837
100069.578750635
100069.578750365
100069.578750047
100069.578749692
100069.578749308
100069.578748898
100069.578748466
100069.578748013
100069.578747544
100069.57874706
100069.578746563
100069.578746057
100069.578745544
100069.578745025
100069.578744505
100069.578743984
100069.578743465
100069.57874295
100069.578742441
100069.57874194
100069.578741449
100069.57874097
100069.578740505
100069.578740054
100069.57873962
100069.578739203
100069.578738805
100069.578738427
100069.578738071
100069.578737737
100069.578737425
100069.578737138
100069.578736874
100069.578736635
100069.578736421
100069.578736229
100069.578736057
100069.578735894
100069.578735725
100069.57873552
100069.578735149
100069.578734549
100069.578733632
100069.578731611
100069.576505982
100069.576507694
100069.576508377
100069.576508714
100069.576508786
100069.576508646
100069.576508425
100069.576508148
100069.576507827
100069.576507473
100069.576507089
100069.57650668
100069.576506248
100069.576505797
100069.576505328
100069.576504845
100069.576504349
100069.576503843
100069.57650333
100069.576502813
100069.576502292
100069.576501772
100069.576501253
100069.576500739
100069.57650023
100069.57649973
100069.576499239
100069.576498761
100069.576498295
100069.576497845
100069.57649741
100069.576496994
100069.576496596
100069.576496219
100069.576495862
100069.576495528
100069.576495216
100069.576494928
100069.576494665
100069.576494425
100069.57649421
100069.576494019
100069.576493849
100069.576493695
100069.576493543
100069.576493373
100069.576493057
100069.576492548
100069.576491748
100069.576489965
100069.574244263
100069.574244882
100069.574244866
100069.574244846
100069.574244753
100069.574244543
100069.574244295
100069.574244008
100069.574243684
100069.574243329
100069.574242947
100069.574242538
100069.574242108
100069.574241657
100069.574241189
100069.574240707
100069.574240212
100069.574239707
100069.574239195
100069.574238678
100069.574238159
100069.574237639
100069.574237121
100069.574236607
100069.5742361
100069.5742356
100069.57423511
100069.574234632
100069.574234167
100069.574233717
100069.574233283
100069.574232867
100069.574232469
100069.574232092
100069.574231735
100069.574231401
100069.574231089
100069.574230801
100069.574230537
100069.574230298
100069.574230082
100069.574229892
100069.574229726
100069.574229581
100069.574229457
100069.574229358
100069.574229206
100069.574229051
100069.574228963
100069.574228248
100069.571974028
100069.571973891
100069.571973586
100069.571973349
100069.57197316
100069.571972914
100069.571972654
100069.571972363
100069.571972038
100069.571971683
100069.571971301
100069.571970894
100069.571970465
100069.571970016
100069.571969549
100069.571969068
100069.571968574
100069.571968071
100069.57196756
100069.571967045
100069.571966526
100069.571966008
100069.571965491
100069.571964978
100069.571964472
100069.571963973
100069.571963484
100069.571963007
100069.571962543
100069.571962093
100069.57196166
100069.571961245
100069.571960848
100069.571960471
100069.571960115
100069.571959781
100069.571959469
100069.571959181
100069.571958917
100069.571958678
100069.571958463
100069.571958272
100069.571958108
100069.571957968
100069.571957856
100069.571957794
100069.571957739
100069.5719578
100069.571958011
100069.57195807
100069.569698442
100069.569698075
100069.569697742
100069.569697414
100069.569697176
100069.569696906
100069.569696635
100069.569696339
100069.569696013
100069.569695658
100069.569695277
100069.569694872
100069.569694444
100069.569693996
100069.569693531
100069.569693052
100069.56969256
100069.569692058
100069.569691549
100069.569691035
100069.569690519
100069.569690002
100069.569689486
100069.569688975
100069.56968847
100069.569687973
100069.569687485
100069.569687009
100069.569686546
100069.569686098
100069.569685666
100069.569685251
100069.569684855
100069.569684479
100069.569684124
100069.56968379
100069.569683479
100069.569683192
100069.569682928
100069.569682689
100069.569682475
100069.569682285
100069.569682123
100069.569681988
100069.569681887
100069.569681849
100069.569681843
100069.569681999
100069.56968224
100069.569682553
100069.567420337
100069.567419977
100069.567419678
100069.56741933
100069.567419072
100069.567418789
100069.56741851
100069.56741821
100069.567417882
100069.567417527
100069.567417147
100069.567416743
100069.567416317
100069.567415871
100069.567415408
100069.567414931
100069.567414441
100069.567413941
100069.567413434
100069.567412923
100069.567412408
100069.567411893
100069.56741138
100069.56741087
100069.567410367
100069.567409872
100069.567409386
100069.567408911
100069.56740845
100069.567408003
100069.567407573
100069.567407159
100069.567406765
100069.56740639
100069.567406035
100069.567405703
100069.567405393
100069.567405106
100069.567404843
100069.567404604
100069.567404391
100069.567404203
100069.567404043
100069.567403912
100069.56740382
100069.567403795
100069.567403809
100069.567403988
100069.567404193
100069.567404514
100069.565141289
100069.565140999
100069.565140749
100069.565140416
100069.565140154
100069.565139866
100069.565139581
100069.565139278
100069.565138949
100069.565138595
100069.565138216
100069.565137813
100069.565137389
100069.565136946
100069.565136485
100069.56513601
100069.565135523
100069.565135025
100069.565134521
100069.565134012
100069.565133499
100069.565132987
100069.565132476
100069.565131969
100069.565131468
100069.565130974
100069.565130491
100069.565130018
100069.565129559
100069.565129114
100069.565128685
100069.565128274
100069.56512788
100069.565127507
100069.565127154
100069.565126822
100069.565126513
100069.565126227
100069.565125965
100069.565125727
100069.565125515
100069.565125329
100069.565125171
100069.565125044
100069.565124958
100069.565124938
100069.565124955
100069.565125121
100069.565125276
100069.565125532
100069.562861927
100069.562861707
100069.562861501
100069.562861194
100069.562860936
100069.562860649
100069.562860361
100069.562860056
100069.562859727
100069.562859373
100069.562858996
100069.562858595
100069.562858173
100069.562857732
100069.562857274
100069.562856802
100069.562856317
100069.562855823
100069.562855321
100069.562854815
100069.562854305
100069.562853795
100069.562853287
100069.562852783
100069.562852285
100069.562851794
100069.562851313
100069.562850843
100069.562850385
100069.562849943
100069.562849516
100069.562849106
100069.562848715
100069.562848343
100069.562847991
100069.562847661
100069.562847353
100069.562847068
100069.562846807
100069.562846571
100069.56284636
100069.562846175
100069.562846019
100069.562845895
100069.562845813
100069.562845792
100069.562845805
100069.562845945
100069.562846056
100069.562846242
100069.56058247
100069.560582304
100069.56058213
100069.560581853
100069.560581602
100069.56058132
100069.560581031
100069.560580726
100069.560580397
100069.560580045
100069.560579669
100069.56057927
100069.560578851
100069.560578413
100069.560577958
100069.560577488
100069.560577007
100069.560576516
100069.560576017
100069.560575514
100069.560575008
100069.560574501
100069.560573996
100069.560573494
100069.560572999
100069.560572511
100069.560572033
100069.560571565
100069.560571111
100069.56057067
100069.560570246
100069.560569838
100069.560569449
100069.560569079
100069.560568729
100069.560568401
100069.560568094
100069.560567811
100069.560567551
100069.560567316
100069.560567106
100069.560566922
100069.560566768
100069.560566646
100069.560566565
100069.56056654
100069.560566546
100069.560566656
100069.560566734
100069.560566867
100069.558302988
100069.55830286
100069.558302712
100069.558302461
100069.558302219
100069.558301943
100069.558301656
100069.558301352
100069.558301024
100069.558300673
100069.5583003
100069.558299904
100069.558299487
100069.558299052
100069.5582986
100069.558298134
100069.558297656
100069.558297169
100069.558296674
100069.558296174
100069.558295671
100069.558295168
100069.558294666
100069.558294168
100069.558293676
100069.558293191
100069.558292716
100069.558292251
100069.5582918
100069.558291362
100069.55829094
100069.558290535
100069.558290148
100069.55828978
100069.558289432
100069.558289106
100069.558288801
100069.558288519
100069.55828826
100069.558288026
100069.558287818
100069.558287635
100069.558287482
100069.558287361
100069.558287279
100069.558287248
100069.558287245
100069.558287329
100069.558287382
100069.558287476
100069.556023499
100069.556023398
100069.556023268
100069.556023041
100069.556022808
100069.55602254
100069.556022256
100069.556021954
100069.556021629
100069.55602128
100069.556020909
100069.556020516
100069.556020103
100069.556019671
100069.556019223
100069.55601876
100069.556018286
100069.556017802
100069.556017311
100069.556016815
100069.556016316
100069.556015816
100069.556015318
100069.556014824
100069.556014335
100069.556013854
100069.556013382
100069.556012921
100069.556012472
100069.556012038
100069.556011619
100069.556011216
100069.556010832
100069.556010466
100069.55601012
100069.556009796
100069.556009493
100069.556009213
100069.556008956
100069.556008723
100069.556008515
100069.556008334
100069.556008182
100069.55600806
100069.556007977
100069.556007938
100069.556007927
100069.556007986
100069.556008021
100069.556008088
100069.553744006
100069.553743925
100069.553743809
100069.553743602
100069.553743378
100069.553743118
100069.553742838
100069.55374254
100069.553742217
100069.553741871
100069.553741503
100069.553741114
100069.553740704
100069.553740276
100069.553739831
100069.553739373
100069.553738902
100069.553738423
100069.553737935
100069.553737443
100069.553736948
100069.553736453
100069.553735959
100069.553735468
100069.553734983
100069.553734506
100069.553734037
100069.55373358
100069.553733135
100069.553732703
100069.553732287
100069.553731888
100069.553731506
100069.553731143
100069.5537308
100069.553730477
100069.553730176
100069.553729898
100069.553729643
100069.553729411
100069.553729205
100069.553729024
100069.553728872
100069.553728749
100069.553728664
100069.553728617
100069.553728598
100069.553728636
100069.553728658
100069.553728705
100069.551464508
100069.551464441
100069.551464336
100069.551464146
100069.551463931
100069.551463679
100069.551463405
100069.55146311
100069.551462791
100069.551462448
100069.551462084
100069.551461697
100069.551461291
100069.551460867
100069.551460427
100069.551459973
100069.551459507
100069.551459031
100069.551458548
100069.55145806
100069.55145757
100069.551457078
100069.551456589
100069.551456102
100069.551455621
100069.551455148
100069.551454683
100069.55145423
100069.551453788
100069.55145336
100069.551452947
100069.551452551
100069.551452172
100069.551451812
100069.551451471
100069.551451151
100069.551450852
100069.551450576
100069.551450322
100069.551450092
100069.551449886
100069.551449707
100069.551449554
100069.551449431
100069.551449342
100069.551449288
100069.55144926
100069.551449281
100069.551449292
100069.551449325
100069.549185003
100069.549184947
100069.549184851
100069.549184676
100069.549184469
100069.549184225
100069.549183956
100069.549183665
100069.54918335
100069.549183012
100069.549182651
100069.549182268
100069.549181866
100069.549181446
100069.54918101
100069.549180561
100069.549180099
100069.549179628
100069.54917915
100069.549178666
100069.54917818
100069.549177694
100069.549177208
100069.549176726
100069.54917625
100069.54917578
100069.54917532
100069.54917487
100069.549174432
100069.549174008
100069.549173599
100069.549173206
100069.54917283
100069.549172473
100069.549172135
100069.549171817
100069.549171521
100069.549171246
100069.549170994
100069.549170765
100069.549170561
100069.549170382
100069.549170229
100069.549170104
100069.549170012
100069.549169951
100069.549169916
100069.549169922
100069.549169925
100069.549169946
100069.546905492
100069.546905444
100069.546905354
100069.546905191
100069.546904992
100069.546904756
100069.546904493
100069.546904207
100069.546903895
100069.546903561
100069.546903204
100069.546902826
100069.546902428
100069.546902013
100069.546901581
100069.546901136
100069.546900679
100069.546900213
100069.54689974
100069.546899261
100069.54689878
100069.546898298
100069.546897817
100069.54689734
100069.546896868
100069.546896403
100069.546895947
100069.546895501
100069.546895067
100069.546894647
100069.546894241
100069.546893852
100069.546893479
100069.546893125
100069.54689279
100069.546892475
100069.546892181
100069.546891908
100069.546891658
100069.546891431
100069.546891227
100069.546891049
100069.546890896
100069.54689077
100069.546890674
100069.546890607
100069.546890565
100069.546890559
100069.546890555
100069.546890568
100069.544625972
100069.54462593
100069.544625846
100069.544625693
100069.544625501
100069.544625272
100069.544625015
100069.544624734
100069.544624427
100069.544624097
100069.544623744
100069.544623371
100069.544622978
100069.544622567
100069.54462214
100069.5446217
100069.544621248
100069.544620787
100069.544620318
100069.544619845
100069.544619368
100069.544618891
100069.544618416
100069.544617943
100069.544617476
100069.544617015
100069.544616564
100069.544616122
100069.544615693
100069.544615277
100069.544614875
100069.544614489
100069.54461412
100069.544613769
100069.544613437
100069.544613124
100069.544612833
100069.544612562
100069.544612314
100069.544612088
100069.544611886
100069.544611708
100069.544611554
100069.544611427
100069.544611328
100069.544611256
100069.544611208
100069.544611192
100069.544611182
100069.544611189
100069.542346444
100069.542346406
100069.542346326
100069.542346181
100069.542345996
100069.542345775
100069.542345523
100069.542345247
100069.542344945
100069.54234462
100069.542344272
100069.542343903
100069.542343514
100069.542343108
100069.542342687
100069.542342251
100069.542341804
100069.542341348
100069.542340885
100069.542340417
100069.542339946
100069.542339474
100069.542339003
100069.542338536
100069.542338073
100069.542337618
100069.542337171
100069.542336734
100069.542336309
100069.542335897
100069.542335499
100069.542335117
100069.542334751
100069.542334404
100069.542334074
100069.542333765
100069.542333476
100069.542333208
100069.542332961
100069.542332737
100069.542332536
100069.542332358
100069.542332204
100069.542332076
100069.542331974
100069.542331898
100069.542331845
100069.54233182
100069.542331805
100069.542331807
100069.540066906
100069.540066872
100069.540066795
100069.540066658
100069.540066479
100069.540066264
100069.540066019
100069.540065747
100069.54006545
100069.540065129
100069.540064786
100069.540064422
100069.540064039
100069.540063638
100069.540063221
100069.540062791
100069.54006235
100069.540061899
100069.540061441
100069.540060978
100069.540060512
100069.540060046
100069.54005958
100069.540059118
100069.540058661
100069.54005821
100069.540057768
100069.540057336
100069.540056915
100069.540056507
100069.540056114
100069.540055736
100069.540055374
100069.540055029
100069.540054704
100069.540054397
100069.54005411
100069.540053844
100069.5400536
100069.540053377
100069.540053177
100069.540053
100069.540052846
100069.540052717
100069.540052613
100069.540052532
100069.540052475
100069.540052444
100069.540052425
100069.540052424
100069.53778736
100069.537787328
100069.537787255
100069.537787123
100069.53778695
100069.537786741
100069.537786501
100069.537786235
100069.537785943
100069.537785627
100069.537785289
100069.53778493
100069.537784552
100069.537784156
100069.537783745
100069.53778332
100069.537782884
100069.537782439
100069.537781987
100069.537781529
100069.537781069
100069.537780608
100069.537780147
100069.53777969
100069.537779238
100069.537778793
100069.537778356
100069.537777928
100069.537777512
100069.537777109
100069.53777672
100069.537776345
100069.537775987
100069.537775647
100069.537775324
100069.53777502
100069.537774737
100069.537774473
100069.53777423
100069.537774009
100069.53777381
100069.537773634
100069.53777348
100069.53777335
100069.537773244
100069.53777316
100069.537773099
100069.537773062
100069.537773041
100069.537773037
100069.535507806
100069.535507775
100069.535507704
100069.535507579
100069.535507411
100069.535507207
100069.535506973
100069.535506712
100069.535506425
100069.535506114
100069.535505781
100069.535505427
100069.535505054
100069.535504664
100069.535504258
100069.535503839
100069.535503409
100069.535502969
100069.535502522
100069.535502071
100069.535501616
100069.53550116
100069.535500706
100069.535500254
100069.535499807
100069.535499367
100069.535498935
100069.535498512
100069.535498101
100069.535497702
100069.535497317
100069.535496947
100069.535496593
100069.535496256
100069.535495937
100069.535495636
100069.535495355
100069.535495094
100069.535494854
100069.535494634
100069.535494436
100069.53549426
100069.535494107
100069.535493976
100069.535493868
100069.535493782
100069.535493717
100069.535493677
100069.535493654
100069.535493647
100069.533228244
100069.533228214
100069.533228146
100069.533228025
100069.533227862
100069.533227663
100069.533227435
100069.533227179
100069.533226897
100069.533226592
100069.533226264
100069.533225915
100069.533225548
100069.533225163
100069.533224763
100069.533224349
100069.533223925
100069.533223491
100069.53322305
100069.533222604
100069.533222155
100069.533221705
100069.533221256
100069.53322081
100069.533220368
100069.533219933
100069.533219506
100069.533219089
100069.533218682
100069.533218288
100069.533217908
100069.533217542
100069.533217192
100069.533216858
100069.533216543
100069.533216245
100069.533215967
100069.533215708
100069.53321547
100069.533215252
100069.533215055
100069.53321488
100069.533214727
100069.533214595
100069.533214486
100069.533214398
100069.533214331
100069.533214287
100069.533214262
100069.533214254
100069.530948676
100069.530948647
100069.530948581
100069.530948464
100069.530948306
100069.530948112
100069.530947889
100069.530947638
100069.530947362
100069.530947061
100069.530946739
100069.530946396
100069.530946034
100069.530945654
100069.53094526
100069.530944852
100069.530944433
100069.530944005
100069.53094357
100069.53094313
100069.530942687
100069.530942243
100069.530941799
100069.530941359
100069.530940923
100069.530940493
100069.530940072
100069.530939659
100069.530939258
100069.530938868
100069.530938492
100069.530938131
100069.530937785
100069.530937455
100069.530937143
100069.530936848
100069.530936573
100069.530936316
100069.53093608
100069.530935864
100069.530935669
100069.530935494
100069.530935341
100069.530935209
100069.530935099
100069.530935009
100069.53093494
100069.530934894
100069.530934868
100069.530934859
100069.528669102
100069.528669074
100069.528669009
100069.528668897
100069.528668743
100069.528668554
100069.528668336
100069.528668091
100069.528667819
100069.528667524
100069.528667207
100069.52866687
100069.528666513
100069.52866614
100069.528665751
100069.528665349
100069.528664936
100069.528664514
100069.528664085
100069.528663651
100069.528663213
100069.528662775
100069.528662337
100069.528661903
100069.528661472
100069.528661048
100069.528660632
100069.528660224
100069.528659828
100069.528659443
100069.528659072
100069.528658714
100069.528658372
100069.528658046
100069.528657738
100069.528657446
100069.528657174
100069.52865692
100069.528656686
100069.528656472
100069.528656277
100069.528656104
100069.528655951
100069.528655819
100069.528655708
100069.528655616
100069.528655546
100069.528655498
100069.528655471
100069.528655461
100069.526389526
100069.526389498
100069.526389435
100069.526389325
100069.526389176
100069.526388992
100069.526388779
100069.526388539
100069.526388273
100069.526387983
100069.526387672
100069.526387339
100069.526386989
100069.526386621
100069.526386238
100069.526385842
100069.526385435
100069.526385019
100069.526384596
100069.526384167
100069.526383736
100069.526383303
100069.526382872
100069.526382443
100069.526382018
100069.526381599
100069.526381188
100069.526380786
100069.526380394
100069.526380015
100069.526379648
100069.526379295
100069.526378957
100069.526378635
100069.526378329
100069.526378041
100069.526377772
100069.52637752
100069.526377288
100069.526377076
100069.526376883
100069.52637671
100069.526376558
100069.526376425
100069.526376314
100069.526376221
100069.52637615
100069.5263761
100069.526376073
100069.526376063
100069.524109947
100069.524109919
100069.524109858
100069.524109752
100069.524109607
100069.524109428
100069.524109219
100069.524108984
100069.524108723
100069.524108439
100069.524108133
100069.524107807
100069.524107462
100069.5241071
100069.524106723
100069.524106333
100069.524105932
100069.524105521
100069.524105104
100069.524104682
100069.524104256
100069.52410383
100069.524103404
100069.52410298
100069.524102561
100069.524102148
100069.524101742
100069.524101345
100069.524100959
100069.524100584
100069.524100221
100069.524099873
100069.524099539
100069.524099221
100069.524098919
100069.524098634
100069.524098367
100069.524098119
100069.524097889
100069.524097678
100069.524097487
100069.524097315
100069.524097163
100069.52409703
100069.524096918
100069.524096825
100069.524096752
100069.524096702
100069.524096674
100069.524096663
100069.521830368
100069.521830341
100069.521830281
100069.521830178
100069.521830037
100069.521829862
100069.521829659
100069.521829429
100069.521829174
100069.521828895
100069.521828594
100069.521828273
100069.521827934
100069.521827578
100069.521827207
100069.521826823
100069.521826428
100069.521826023
100069.521825612
100069.521825196
100069.521824776
100069.521824356
100069.521823936
100069.521823518
100069.521823104
100069.521822697
100069.521822296
100069.521821904
100069.521821523
100069.521821153
100069.521820795
100069.521820451
100069.521820121
100069.521819807
100069.521819508
100069.521819227
100069.521818963
100069.521818717
100069.521818489
100069.52181828
100069.52181809
100069.521817919
100069.521817767
100069.521817635
100069.521817522
100069.521817428
100069.521817355
100069.521817303
100069.521817275
100069.521817265
100069.51955079
100069.519550763
100069.519550704
100069.519550605
100069.519550468
100069.519550298
100069.5195501
100069.519549875
100069.519549625
100069.519549351
100069.519549056
100069.519548741
100069.519548407
100069.519548057
100069.519547692
100069.519547314
100069.519546925
100069.519546527
100069.519546121
100069.519545711
100069.519545297
100069.519544883
100069.519544468
100069.519544056
100069.519543648
100069.519543246
100069.519542851
100069.519542464
100069.519542088
100069.519541722
100069.519541369
100069.519541029
100069.519540704
100069.519540393
100069.519540098
100069.51953982
100069.519539559
100069.519539315
100069.519539089
100069.519538882
100069.519538693
100069.519538523
100069.519538372
100069.51953824
100069.519538127
100069.519538032
100069.519537958
100069.519537905
100069.519537877
100069.519537867
100069.517271216
100069.517271189
100069.517271132
100069.517271036
100069.517270903
100069.517270738
100069.517270544
100069.517270324
100069.517270079
100069.517269811
100069.517269522
100069.517269212
100069.517268884
100069.51726854
100069.517268181
100069.517267808
100069.517267425
100069.517267033
100069.517266634
100069.517266229
100069.517265822
100069.517265412
100069.517265004
100069.517264598
100069.517264195
100069.517263798
100069.517263409
100069.517263027
100069.517262655
100069.517262295
100069.517261946
100069.517261611
100069.517261289
100069.517260982
100069.517260691
100069.517260416
100069.517260157
100069.517259916
100069.517259692
100069.517259487
100069.517259299
100069.51725913
100069.517258979
100069.517258847
100069.517258734
100069.517258638
100069.517258563
100069.51725851
100069.517258482
100069.517258471
100069.514991646
100069.51499162
100069.514991564
100069.514991471
100069.514991342
100069.514991182
100069.514990993
100069.514990778
100069.514990539
100069.514990276
100069.514989992
100069.514989688
100069.514989366
100069.514989027
100069.514988674
100069.514988308
100069.51498793
100069.514987544
100069.514987151
100069.514986752
100069.51498635
100069.514985947
100069.514985544
100069.514985143
100069.514984746
100069.514984355
100069.51498397
100069.514983594
100069.514983227
100069.514982871
100069.514982527
100069.514982196
100069.514981878
100069.514981575
100069.514981287
100069.514981015
100069.514980759
100069.514980521
100069.514980299
100069.514980095
100069.514979909
100069.51497974
100069.51497959
100069.514979458
100069.514979344
100069.514979248
100069.514979172
100069.514979118
100069.514979089
100069.514979079
100069.512712082
100069.512712057
100069.512712002
100069.512711913
100069.512711789
100069.512711633
100069.51271145
100069.51271124
100069.512711005
100069.512710748
100069.512710469
100069.512710171
100069.512709855
100069.512709522
100069.512709174
100069.512708814
100069.512708442
100069.512708062
100069.512707674
100069.512707281
100069.512706885
100069.512706487
100069.51270609
100069.512705695
100069.512705303
100069.512704917
100069.512704538
100069.512704166
100069.512703805
100069.512703453
100069.512703113
100069.512702786
100069.512702473
100069.512702173
100069.512701889
100069.51270162
100069.512701367
100069.51270113
100069.512700911
100069.512700708
100069.512700523
100069.512700356
100069.512700206
100069.512700074
100069.512699959
100069.512699862
100069.512699785
100069.51269973
100069.512699701
100069.512699691
100069.510432526
100069.510432502
100069.510432449
100069.510432364
100069.510432243
100069.510432092
100069.510431914
100069.510431709
100069.51043148
100069.510431228
100069.510430955
100069.510430663
100069.510430352
100069.510430024
100069.510429682
100069.510429328
100069.510428962
100069.510428587
100069.510428205
100069.510427818
100069.510427428
100069.510427036
100069.510426644
100069.510426254
100069.510425868
100069.510425487
100069.510425113
100069.510424746
100069.510424389
100069.510424042
100069.510423707
100069.510423383
100069.510423074
100069.510422778
100069.510422496
100069.51042223
100069.51042198
100069.510421746
100069.510421528
100069.510421327
100069.510421144
100069.510420977
100069.510420827
100069.510420695
100069.51042058
100069.510420482
100069.510420404
100069.510420347
100069.510420318
100069.510420308
100069.50815298
100069.508152956
100069.508152906
100069.508152825
100069.508152709
100069.508152562
100069.508152389
100069.50815219
100069.508151966
100069.508151719
100069.508151452
100069.508151164
100069.508150859
100069.508150537
100069.508150201
100069.508149852
100069.508149492
100069.508149122
100069.508148746
100069.508148365
100069.50814798
100069.508147593
100069.508147207
100069.508146822
100069.508146441
100069.508146065
100069.508145696
100069.508145334
100069.508144982
100069.508144639
100069.508144308
100069.508143989
100069.508143683
100069.50814339
100069.508143112
100069.508142849
100069.508142601
100069.50814237
100069.508142154
100069.508141954
100069.508141772
100069.508141605
100069.508141456
100069.508141324
100069.508141207
100069.508141109
100069.508141029
100069.508140971
100069.508140941
100069.50814093
100069.505873445
100069.505873422
100069.505873374
100069.505873297
100069.505873185
100069.505873044
100069.505872877
100069.505872682
100069.505872463
100069.505872222
100069.50587196
100069.505871678
100069.505871378
100069.505871062
100069.505870731
100069.505870387
100069.505870033
100069.505869669
100069.505869298
100069.505868922
100069.505868542
100069.505868161
100069.50586778
100069.505867401
100069.505867025
100069.505866654
100069.505866289
100069.505865932
100069.505865584
100069.505865246
100069.505864919
100069.505864604
100069.505864301
100069.505864012
100069.505863737
100069.505863477
100069.505863232
100069.505863002
100069.505862788
100069.50586259
100069.505862408
100069.505862242
100069.505862093
100069.50586196
100069.505861843
100069.505861743
100069.505861662
100069.505861602
100069.505861571
100069.505861559
100069.503593922
100069.503593901
100069.503593855
100069.503593783
100069.503593676
100069.50359354
100069.503593378
100069.503593188
100069.503592975
100069.503592739
100069.503592482
100069.503592205
100069.50359191
100069.503591599
100069.503591274
100069.503590936
100069.503590586
100069.503590228
100069.503589863
100069.503589492
100069.503589118
100069.503588742
100069.503588366
100069.503587991
100069.50358762
100069.503587254
100069.503586894
100069.503586542
100069.503586198
100069.503585864
100069.503585541
100069.503585229
100069.50358493
100069.503584644
100069.503584372
100069.503584115
100069.503583872
100069.503583644
100069.503583432
100069.503583235
100069.503583054
100069.503582889
100069.50358274
100069.503582606
100069.503582488
100069.503582386
100069.503582304
100069.503582241
100069.503582209
100069.503582196
100069.501314412
100069.501314393
100069.50131435
100069.501314283
100069.501314181
100069.50131405
100069.501313893
100069.501313709
100069.501313501
100069.50131327
100069.501313018
100069.501312747
100069.501312457
100069.501312152
100069.501311831
100069.501311498
100069.501311154
100069.501310801
100069.501310441
100069.501310075
100069.501309706
100069.501309335
100069.501308964
100069.501308595
100069.501308228
100069.501307867
100069.501307511
100069.501307163
100069.501306823
100069.501306493
100069.501306174
100069.501305866
100069.501305571
100069.501305288
100069.501305019
100069.501304764