/*--------------------------------*- C++ -*----------------------------------*\
  =========                 |
  \\      /  F ield         | OpenFOAM: The Open Source CFD Toolbox
   \\    /   O peration     | Website:  https://openfoam.org
    \\  /    A nd           | Version:  10
     \\/     M anipulation  |
\*---------------------------------------------------------------------------*/
FoamFile
{
    format      ascii;
    class       volScalarField;
    location    "2.6";
    object      p_rgh;
}
// * * * * * * * * * * * * * * * * * * * * * * * * * * * * * * * * * * * * * //

dimensions      [1 -1 -2 0 0 0 0];

internalField   nonuniform List<scalar> 
2500
(
69.6918931029359
69.6919111329335
69.6919217361137
69.6919256530673
69.6919268833299
69.6919271187944
69.6919270165963
69.6919267756748
69.6919264651078
69.6919261131115
69.6919257301633
69.6919253209053
69.6919248887425
69.6919244368473
69.6919239676645
69.691923483857
69.6919229876512
69.6919224817975
69.6919219687261
69.6919214506925
69.6919209301414
69.6919204093429
69.6919198905234
69.6919193756621
69.6919188669708
69.691918366414
69.691917875738
69.6919173967326
69.6919169311004
69.6919164802821
69.6919160458201
69.6919156290678
69.6919152311748
69.6919148533634
69.6919144967687
69.6919141623075
69.6919138508092
69.691913563016
69.6919132992189
69.6919130597671
69.6919128440059
69.6919126492867
69.6919124679262
69.6919122730178
69.691911995018
69.6919114426273
69.6919099697843
69.6919058900821
69.6918950292165
69.6918771318742
69.6926620210725
69.6927057473367
69.6927347421733
69.6927465645567
69.6927508422232
69.692752166171
69.6927524233033
69.6927522907499
69.6927520103345
69.6927516666037
69.6927512859984
69.6927508777444
69.6927504462947
69.6927499949234
69.6927495262644
69.6927490428498
69.6927485471388
69.6927480417216
69.692747529014
69.6927470114024
69.6927464912442
69.6927459708822
69.6927454524703
69.6927449379873
69.6927444296016
69.6927439293504
69.6927434389509
69.6927429602074
69.6927424948226
69.6927420441934
69.6927416099061
69.6927411933721
69.6927407955372
69.6927404176968
69.6927400611166
69.6927397266409
69.6927394150698
69.6927391270583
69.6927388629265
69.6927386225725
69.6927384039009
69.6927381989663
69.6927379817789
69.692737666599
69.692737011821
69.6927353614301
69.6927308744052
69.6927189309645
69.6926892791816
69.6926454036438
69.6932545290765
69.6933000506688
69.693329921909
69.6933422402799
69.6933466847113
69.6933480608132
69.6933483355679
69.6933482085878
69.6933479300351
69.6933475873811
69.6933472076926
69.6933468003845
69.6933463698224
69.6933459193242
69.6933454515238
69.6933449689095
69.6933444740571
69.6933439693967
69.6933434574457
69.6933429405617
69.6933424211456
69.6933419014385
69.6933413836814
69.6933408698824
69.6933403621224
69.6933398624096
69.6933393725485
69.6933388943289
69.6933384293952
69.6933379792026
69.6933375453082
69.6933371290943
69.6933367315505
69.6933363539429
69.6933359975519
69.6933356631635
69.6933353515633
69.6933350634645
69.693334799158
69.6933345585567
69.6933343396377
69.6933341344266
69.6933339167881
69.6933335993526
69.6933329338644
69.6933312410838
69.6933265865518
69.6933140880428
69.6932833984756
69.6932364908862
69.6936165534426
69.6936488337378
69.693667519954
69.693674980881
69.6936775022041
69.6936781682452
69.6936782021367
69.6936780003598
69.6936777007068
69.6936773530178
69.69367697282
69.6936765662686
69.6936761368997
69.6936756876821
69.6936752211768
69.6936747398868
69.6936742463149
69.6936737429642
69.6936732322647
69.6936727165885
69.6936721983075
69.6936716797354
69.6936711630697
69.693670650362
69.6936701436352
69.6936696449266
69.6936691560404
69.6936686787085
69.6936682145897
69.693667765212
69.6936673320597
69.693666916457
69.693666519539
69.6936661424988
69.6936657865153
69.693665452447
69.6936651410651
69.6936648530973
69.69366458898
69.6936643488734
69.693664131948
69.6936639341147
69.6936637421313
69.6936635084276
69.6936630973214
69.6936621233908
69.6936593692808
69.6936516733986
69.6936323196132
69.6935982157593
69.693800804569
69.6938187644118
69.6938278249581
69.6938312614948
69.6938323079376
69.6938324579678
69.6938323200302
69.6938320647023
69.6938317497115
69.6938313983992
69.6938310180703
69.6938306125376
69.6938301846239
69.693829737007
69.6938292721752
69.6938287925732
69.6938283007185
69.6938277990703
69.6938272900297
69.693826776027
69.6938262593758
69.6938257423753
69.6938252272375
69.6938247160288
69.6938242107863
69.6938237134891
69.6938232259563
69.693822749934
69.6938222870522
69.6938218388386
69.6938214067486
69.6938209921209
69.6938205961342
69.6938202199526
69.6938198646676
69.6938195311959
69.6938192203088
69.693818932763
69.6938186690822
69.693818429645
69.6938182144077
69.6938180219877
69.6938178477867
69.6938176715776
69.6938174379029
69.693816983854
69.6938156998222
69.6938120462582
69.6938025364652
69.6937830985989
69.6938822515367
69.6938906035793
69.6938942355628
69.6938954526704
69.6938957185339
69.6938956034719
69.6938953764766
69.6938950925978
69.693894769196
69.6938944160647
69.6938940361579
69.6938936319348
69.6938932057674
69.6938927600568
69.6938922972186
69.6938918196975
69.6938913299236
69.6938908303564
69.6938903234259
69.6938898114749
69.6938892968756
69.6938887818687
69.6938882686809
69.6938877593784
69.6938872560277
69.6938867605495
69.6938862747484
69.6938858003996
69.6938853391184
69.6938848924183
69.6938844617398
69.6938840484072
69.6938836536428
69.6938832785818
69.6938829243009
69.6938825916877
69.6938822815864
69.6938819946954
69.6938817316695
69.6938814930327
69.6938812791923
69.6938810902648
69.6938809258863
69.6938807794941
69.6938806359685
69.6938804468373
69.6938799420459
69.6938785348757
69.6938746271626
69.693865359528
69.6939144519129
69.6939177940512
69.6939190029807
69.6939192478894
69.693919177822
69.6939189506083
69.6939186841628
69.6939183869836
69.6939180596091
69.6939177059248
69.6939173269202
69.6939169242978
69.6939165001386
69.6939160566108
69.6939155961009
69.6939151209808
69.6939146336372
69.6939141365438
69.6939136320725
69.6939131225954
69.6939126104116
69.6939120978204
69.6939115869609
69.6939110799722
69.6939105788624
69.6939100855525
69.6939096018759
69.6939091295644
69.6939086702041
69.6939082253521
69.6939077964053
69.6939073847025
69.6939069914515
69.6939066177874
69.693906264758
69.6939059332799
69.6939056241972
69.6939053382375
69.6939050760993
69.6939048384083
69.6939046258776
69.6939044393366
69.6939042802842
69.6939041479345
69.6939040438738
69.6939039654972
69.6939037946286
69.6939033747622
69.6939019917918
69.6938981702842
69.6939260654326
69.6939272100717
69.6939274985925
69.6939273872122
69.6939271940209
69.6939269270806
69.693926645079
69.6939263423264
69.6939260135259
69.6939256601763
69.6939252825105
69.6939248818089
69.6939244598907
69.6939240188804
69.6939235609898
69.693923088591
69.6939226040413
69.6939221097564
69.6939216081082
69.6939211014396
69.6939205920789
69.6939200822235
69.6939195740997
69.6939190697885
69.6939185712836
69.6939180805202
69.6939175992884
69.6939171293343
69.6939166722295
69.6939162295166
69.6939158026216
69.6939153928397
69.6939150013786
69.693914629388
69.693914277872
69.6939139477763
69.6939136399305
69.6939133551205
69.6939130940591
69.6939128574741
69.6939126462385
69.6939124615164
69.6939123054908
69.6939121796313
69.6939120913739
69.6939120516181
69.6939120020979
69.6939119442832
69.693911530092
69.6939101558819
69.6939299373626
69.6939302419632
69.6939302253013
69.6939300087543
69.6939297787467
69.6939295022603
69.6939292154275
69.693928911016
69.6939285823464
69.6939282300591
69.6939278541249
69.6939274556644
69.6939270363218
69.6939265980764
69.6939261431398
69.6939256737824
69.6939251923322
69.6939247011906
69.6939242027147
69.6939236992039
69.6939231929719
69.6939226862451
69.6939221811772
69.6939216798783
69.6939211843128
69.6939206964016
69.6939202179638
69.6939197506726
69.6939192961581
69.693918855919
69.6939184313378
69.6939180237532
69.693917634344
69.6939172642451
69.6939169144898
69.6939165860094
69.6939162796334
69.6939159961767
69.6939157363522
69.693915500975
69.6939152909908
69.6939151077095
69.6939149535465
69.6939148305828
69.6939147478843
69.6939147171361
69.6939147034864
69.6939147523517
69.6939146631194
69.6939142473129
69.6939311381575
69.6939311615861
69.69393105981
69.693930826892
69.6939305913256
69.693930317022
69.6939300303784
69.6939297265053
69.6939293990436
69.6939290484588
69.693928674722
69.6939282788226
69.6939278623468
69.6939274271863
69.6939269754803
69.6939265094552
69.6939260314393
69.693925543761
69.693925048763
69.6939245487447
69.693924045976
69.6939235426835
69.6939230410062
69.6939225430251
69.6939220507193
69.6939215659659
69.6939210905985
69.6939206262905
69.6939201746427
69.6939197371248
69.6939193151629
69.6939189100231
69.6939185229276
69.6939181549824
69.6939178072062
69.6939174805448
69.6939171758277
69.6939168938698
69.6939166354277
69.6939164013311
69.6939161925402
69.6939160104666
69.6939158573223
69.6939157354936
69.6939156536973
69.6939156207081
69.6939156123553
69.6939156775916
69.6939156808949
69.6939155954751
69.693931479298
69.6939314243791
69.693931307469
69.6939310852031
69.6939308543951
69.6939305866254
69.6939303027466
69.6939300008235
69.6939296754572
69.6939293271862
69.6939289560542
69.6939285630651
69.6939281497616
69.6939277179627
69.6939272697637
69.6939268073911
69.693926333086
69.6939258491766
69.6939253579476
69.6939248617127
69.693924362713
69.6939238631458
69.6939233651647
69.6939228707924
69.6939223820518
69.6939219007763
69.6939214287704
69.6939209677075
69.6939205191884
69.6939200846537
69.6939196655439
69.6939192630816
69.6939188785327
69.6939185129449
69.6939181673661
69.6939178426983
69.6939175398147
69.6939172595157
69.693917002558
69.6939167697856
69.6939165621588
69.6939163810312
69.6939162284543
69.6939161066402
69.6939160235052
69.6939159842877
69.6939159713802
69.6939160254842
69.6939160466281
69.6939160579932
69.6939315578929
69.6939314899937
69.6939313774201
69.6939311718015
69.6939309487207
69.6939306889253
69.6939304092957
69.6939301103121
69.6939297877689
69.6939294423064
69.6939290741866
69.6939286844427
69.6939282746171
69.6939278464852
69.6939274020988
69.6939269436261
69.6939264733082
69.6939259934297
69.6939255062753
69.6939250141004
69.6939245191606
69.6939240235952
69.6939235295722
69.6939230391145
69.6939225541864
69.6939220766508
69.6939216082683
69.6939211507124
69.6939207055548
69.6939202742651
69.6939198582259
69.6939194587176
69.6939190769044
69.6939187138778
69.6939183706709
69.6939180481859
69.6939177472814
69.6939174687577
69.6939172133716
69.6939169819525
69.6939167754463
69.6939165950753
69.6939164426731
69.6939163202333
69.6939162345516
69.6939161879709
69.6939161677728
69.693916204691
69.6939162226045
69.6939162534254
69.6939315570489
69.6939314939809
69.6939313895273
69.6939312001778
69.6939309854206
69.6939307339053
69.6939304594125
69.6939301641105
69.6939298449288
69.6939295027405
69.6939291380404
69.6939287518908
69.6939283458196
69.6939279216313
69.6939274813194
69.6939270270232
69.6939265609544
69.6939260853833
69.6939256025362
69.6939251146978
69.6939246240509
69.6939241327636
69.6939236429607
69.6939231566648
69.6939226757968
69.6939222022338
69.6939217377221
69.6939212839206
69.6939208423719
69.6939204145601
69.6939200018242
69.69391960543
69.6939192265563
69.6939188662946
69.6939185256197
69.693918205463
69.6939179066831
69.6939176300366
69.693917376324
69.6939171462873
69.6939169408433
69.6939167610981
69.6939166086231
69.6939164851501
69.6939163963543
69.6939163424249
69.693916314558
69.6939163346688
69.6939163448988
69.6939163728966
69.6939315296186
69.6939314745978
69.6939313780167
69.6939312029426
69.69393099632
69.6939307528664
69.6939304839761
69.6939301928942
69.6939298775687
69.6939295390912
69.6939291781455
69.6939287958812
69.69392839387
69.6939279738581
69.6939275378681
69.6939270879957
69.6939266264235
69.6939261553925
69.6939256771293
69.6939251938456
69.693924707768
69.6939242210065
69.693923735671
69.6939232537698
69.6939227771945
69.6939223078371
69.6939218474145
69.6939213975711
69.6939209598495
69.6939205357048
69.6939201264613
69.693919733385
69.69391935764
69.6939190002886
69.6939186623204
69.6939183446375
69.6939180480986
69.6939177734457
69.6939175214357
69.6939172928251
69.6939170884289
69.6939169092366
69.6939167565579
69.6939166318189
69.693916539647
69.6939164789219
69.6939164437063
69.6939164492069
69.6939164516953
69.6939164721844
69.6939314892952
69.6939314414922
69.6939313515468
69.6939311885653
69.6939309896406
69.6939307538851
69.6939304908883
69.6939302043902
69.6939298932848
69.6939295588527
69.693929201967
69.6939288238937
69.6939284261753
69.6939280106162
69.693927579181
69.6939271339652
69.6939266771224
69.6939262108499
69.6939257373888
69.6939252589073
69.6939247776027
69.693924295585
69.6939238149353
69.6939233376324
69.693922865612
69.6939224006637
69.6939219445339
69.6939214988524
69.6939210651617
69.6939206448587
69.6939202392969
69.693919849713
69.6939194772567
69.6939191229758
69.6939187878597
69.6939184727817
69.693918178571
69.6939179059991
69.6939176557789
69.693917428609
69.6939172252605
69.693917046563
69.6939168936078
69.6939167675446
69.6939166720695
69.6939166052325
69.6939165633084
69.6939165565564
69.69391655238
69.6939165654185
69.6939314394403
69.6939313973708
69.6939313129842
69.6939311601309
69.6939309684094
69.6939307398425
69.6939304827829
69.6939302011742
69.6939298945799
69.6939295644988
69.6939292119641
69.6939288383146
69.693928445151
69.6939280342631
69.6939276076009
69.69392716726
69.6939267153502
69.6939262540691
69.6939257855993
69.6939253121236
69.6939248357958
69.6939243587258
69.6939238829655
69.6939234104648
69.6939229431591
69.6939224828238
69.6939220311906
69.6939215898747
69.6939211603749
69.6939207441028
69.6939203423826
69.6939199564513
69.6939195874293
69.6939192363643
69.6939189042023
69.6939185918454
69.6939183000941
69.6939180296758
69.6939177812892
69.6939175556035
69.6939173532883
69.6939171750855
69.6939170218538
69.6939168944955
69.6939167958917
69.6939167237724
69.6939166758675
69.6939166590746
69.6939166492812
69.6939166561788
69.6939313803305
69.6939313425537
69.6939312626491
69.6939311183087
69.6939309332956
69.6939307114662
69.6939304603438
69.693930183741
69.6939298818907
69.6939295563934
69.6939292084571
69.6939288394788
69.6939284510736
69.6939280450606
69.6939276233898
69.6939271880983
69.6939267413254
69.6939262852247
69.6939258219209
69.6939253536548
69.6939248824929
69.6939244105452
69.6939239398635
69.6939234723686
69.6939230099524
69.6939225544193
69.6939221074426
69.6939216706378
69.693921245489
69.6939208334079
69.6939204356895
69.6939200535562
69.6939196880994
69.6939193403668
69.6939190113044
69.6939187017706
69.6939184125367
69.6939181443449
69.6939178978646
69.6939176736923
69.6939174724539
69.6939172947459
69.6939171412814
69.6939170127298
69.6939169113029
69.6939168346726
69.6939167815726
69.6939167566452
69.6939167422679
69.6939167442761
69.693931312213
69.6939312776085
69.6939312014874
69.6939310643211
69.6939308855071
69.6939306699933
69.6939304246771
69.6939301532257
69.6939298562647
69.6939295355696
69.6939291924064
69.6939288283029
69.6939284448599
69.693928043911
69.6939276274061
69.6939271973679
69.6939267559064
69.6939263051463
69.6939258472266
69.6939253843157
69.6939249184943
69.6939244518289
69.6939239863714
69.6939235240279
69.6939230666758
69.6939226160903
69.6939221739303
69.6939217417821
69.6939213211444
69.6939209133852
69.6939205197996
69.6939201415807
69.6939197798201
69.6939194355509
69.6939191096753
69.6939188030374
69.6939185164374
69.6939182505448
69.6939180059999
69.6939177833847
69.6939175832376
69.6939174060972
69.6939172524726
69.6939171228732
69.6939170189871
69.6939169385441
69.6939168809913
69.6939168495883
69.6939168314566
69.6939168297395
69.693931235146
69.6939312028117
69.6939311297319
69.6939309987065
69.6939308256551
69.6939306160639
69.693930376452
69.6939301101665
69.693929818226
69.6939295024786
69.6939291642921
69.693928805209
69.6939284269174
69.6939280312217
69.6939276200428
69.6939271953888
69.6939267593843
69.6939263141248
69.6939258617203
69.69392540431
69.6939249439893
69.6939244827809
69.693924022693
69.693923565661
69.6939231135038
69.6939226679824
69.6939222307847
69.6939218034386
69.6939213874284
69.6939209841075
69.6939205947856
69.6939202205831
69.6939198626205
69.6939195218874
69.693919199286
69.6939188956458
69.6939186117233
69.6939183481882
69.6939181056368
69.6939178846224
69.6939176856249
69.6939175090665
69.6939173553837
69.6939172249258
69.6939171189442
69.6939170353871
69.6939169741236
69.6939169375692
69.6939169164834
69.6939169118996
69.6939311498136
69.6939311191236
69.6939310486632
69.6939309229492
69.6939307552238
69.6939305512497
69.6939303171821
69.6939300560916
69.6939297692588
69.6939294585754
69.6939291255112
69.6939287716232
69.6939283986139
69.6939280083025
69.6939276025951
69.6939271835145
69.6939267531125
69.69392631347
69.6939258667262
69.693925414962
69.6939249602437
69.6939245045796
69.6939240500069
69.6939235983882
69.6939231515425
69.6939227112307
69.6939222790825
69.6939218566404
69.6939214453741
69.6939210466226
69.6939206616371
69.6939202915673
69.6939199375047
69.693919600395
69.6939192811551
69.6939189805707
69.6939186993841
69.69391843825
69.6939181977359
69.6939179783512
69.6939177805325
69.6939176046435
69.6939174510044
69.6939173198334
69.6939172121201
69.6939171260165
69.693917061697
69.6939170211263
69.6939169977413
69.6939169910765
69.6939310568705
69.693931027301
69.6939309590234
69.6939308379806
69.6939306752611
69.6939304766129
69.6939302479441
69.6939299920341
69.6939297103672
69.6939294048643
69.6939290770388
69.6939287284622
69.6939283608808
69.69392797607
69.6939275759651
69.6939271625306
69.6939267378475
69.6939263039676
69.6939258629718
69.6939254169411
69.6939249679563
69.6939245179819
69.6939240690117
69.6939236229082
69.6939231814758
69.6939227464609
69.693922319464
69.6939219020423
69.6939214956074
69.6939211014833
69.6939207209361
69.6939203550719
69.6939200049674
69.6939196715684
69.6939193557337
69.693919058278
69.6939187798853
69.6939185211959
69.6939182827628
69.693918065037
69.6939178684406
69.6939176932792
69.6939175397711
69.6939174081053
69.6939172989805
69.6939172108105
69.6939171440172
69.6939171003323
69.6939170752448
69.6939170670812
69.6939309575828
69.6939309288282
69.693930862486
69.6939307456487
69.6939305876149
69.693930394089
69.693930170688
69.6939299199439
69.6939296434866
69.693929343237
69.6939290207374
69.6939286776033
69.6939283155225
69.6939279363287
69.6939275419136
69.6939271342562
69.6939267153793
69.6939262873348
69.6939258521888
69.693925412008
69.6939249688148
69.6939245246176
69.6939240813372
69.6939236408361
69.6939232048899
69.6939227752591
69.693922353501
69.6939219411433
69.6939215396123
69.6939211502031
69.6939207741525
69.6939204125665
69.6939200664783
69.6939197368338
69.6939194244769
69.6939191301644
69.6939188546094
69.6939185983938
69.6939183620561
69.693918146033
69.693917950688
69.6939177762979
69.6939176230371
69.6939174910221
69.6939173807768
69.6939172909479
69.6939172221755
69.6939171760896
69.6939171497506
69.6939171405975
69.6939308530855
69.6939308248548
69.6939307601569
69.6939306471759
69.6939304936095
69.6939303050167
69.6939300868107
69.6939298412035
69.6939295699849
69.6939292750467
69.6939289579605
69.6939286203124
69.6939282638486
69.6939278903446
69.6939275017212
69.6939270998992
69.6939266869012
69.6939262647647
69.6939258355414
69.6939254012686
69.6939249639545
69.6939245255635
69.6939240880311
69.6939236531907
69.6939232228178
69.6939227986149
69.6939223821537
69.6939219749329
69.6939215783641
69.6939211937133
69.6939208222029
69.6939204649389
69.6939201229106
69.6939197970496
69.6939194881998
69.6939191970887
69.6939189243858
69.6939186706732
69.6939184364601
69.6939182221686
69.6939180281188
69.6939178545581
69.6939177016175
69.6939175693988
69.6939174582512
69.693917367098
69.6939172967686
69.6939172488055
69.6939172216225
69.6939172118582
69.6939307449938
69.6939307171997
69.6939306540735
69.6939305447013
69.6939303953986
69.6939302116225
69.6939299984806
69.6939297580102
69.6939294920303
69.6939292024472
69.6939288908179
69.6939285587432
69.6939282079547
69.6939278402133
69.6939274574106
69.6939270614967
69.6939266544359
69.6939262382657
69.6939258150087
69.6939253866731
69.693924955267
69.693924522755
69.6939240910142
69.6939236618782
69.6939232371224
69.6939228183764
69.6939224072557
69.6939220052009
69.6939216136088
69.6939212337602
69.6939208668482
69.6939205139206
69.6939201759815
69.6939198539476
69.6939195486048
69.6939192607097
69.6939189908735
69.6939187396783
69.6939185076044
69.69391829503
69.6939181023045
69.6939179296023
69.69391777704
69.693917644734
69.693917532888
69.6939174406725
69.6939173690771
69.6939173196879
69.6939172919374
69.6939172818529
69.6939306347485
69.6939306072454
69.6939305455307
69.6939304396074
69.6939302944666
69.6939301153907
69.6939299072692
69.693929671892
69.6939294111799
69.6939291269809
69.6939288208523
69.6939284943946
69.693928149296
69.6939277873607
69.693927410437
69.6939270204457
69.6939266193658
69.693926209191
69.6939257919148
69.6939253695746
69.6939249441202
69.6939245174872
69.6939240915526
69.6939236681501
69.6939232489967
69.693922835766
69.6939224299858
69.693922033126
69.6939216465398
69.6939212714788
69.6939209091506
69.6939205605886
69.6939202267531
69.6939199085464
69.6939196067397
69.6939193220605
69.6939190551057
69.693918806428
69.6939185764932
69.6939183656796
69.6939181742782
69.6939180024783
69.6939178503526
69.693917718032
69.6939176056185
69.6939175125299
69.6939174399158
69.6939173893479
69.6939173612773
69.6939173510618
69.6939305241394
69.6939304969419
69.6939304366679
69.6939303340914
69.6939301930106
69.6939300185622
69.6939298154466
69.693929585148
69.6939293297037
69.6939290509035
69.6939287502901
69.6939284294785
69.6939280901279
69.6939277340134
69.6939273629832
69.6939269789436
69.6939265838446
69.6939261796651
69.6939257683989
69.693925352025
69.6939249325078
69.6939245117537
69.6939240916545
69.6939236739709
69.6939232604345
69.6939228526899
69.6939224522503
69.6939220605709
69.6939216790051
69.6939213087753
69.693920951031
69.69392060682
69.6939202770882
69.6939199626941
69.6939196644089
69.6939193829312
69.693919118843
69.6939188726828
69.6939186448872
69.6939184358052
69.6939182457427
69.693918074845
69.6939179231849
69.693917790908
69.6939176779997
69.693917584169
69.6939175106818
69.6939174591389
69.6939174308645
69.6939174206636
69.6939304146945
69.693930387788
69.6939303288818
69.6939302296378
69.6939300925878
69.693929922767
69.693929724599
69.6939294993936
69.693929249217
69.6939289758011
69.6939286807174
69.693928365552
69.6939280319493
69.6939276816556
69.693927316519
69.6939269384166
69.6939265492983
69.6939261510997
69.6939257458289
69.6939253354212
69.6939249218412
69.6939245069661
69.693924092644
69.6939236806793
69.6939232727309
69.6939228704578
69.6939224753296
69.6939220888162
69.6939217122272
69.6939213467849
69.6939209936099
69.6939206537354
69.6939203280781
69.693920017482
69.6939197227039
69.693919444413
69.6939191831771
69.6939189395052
69.6939187138341
69.6939185064839
69.6939183177165
69.693918147721
69.6939179965557
69.693917864337
69.6939177510212
69.6939176565065
69.6939175822336
69.693917529803
69.6939175014122
69.6939174912695
69.6939303082472
69.6939302817336
69.6939302243118
69.6939301284292
69.6939299953956
69.6939298301731
69.6939296369819
69.6939294168551
69.6939291719464
69.6939289039583
69.6939286144043
69.6939283048705
69.6939279770013
69.6939276325138
69.6939272732416
69.6939269010618
69.6939265178808
69.6939261256484
69.6939257263148
69.6939253218443
69.6939249141433
69.6939245050889
69.6939240965294
69.6939236902253
69.6939232878358
69.6939228909905
69.6939225011592
69.6939221197681
69.6939217481267
69.6939213874284
69.6939210387791
69.6939207031974
69.6939203815709
69.6939200747438
69.6939197834436
69.6939195082959
69.693919249883
69.6939190086705
69.6939187850658
69.6939185794181
69.6939183919458
69.693918222838
69.6939180721238
69.6939179399778
69.6939178262255
69.6939177310269
69.6939176559827
69.693917602679
69.6939175741572
69.6939175641019
69.6939302063111
69.6939301802631
69.6939301243401
69.6939300318918
69.6939299029327
69.6939297423378
69.6939295541524
69.6939293391188
69.6939290994633
69.6939288368885
69.6939285528497
69.6939282489329
69.6939279267681
69.6939275880577
69.6939272346062
69.6939268682909
69.6939264910034
69.6939261046791
69.693925711239
69.6939253126329
69.6939249107527
69.69392450749
69.6939241046202
69.6939237039187
69.6939233070152
69.6939229155396
69.6939225309325
69.6939221546054
69.6939217878535
69.6939214318554
69.6939210876881
69.693920756341
69.6939204387018
69.6939201355854
69.6939198477048
69.6939195756568
69.6939193200087
69.6939190812118
69.6939188596589
69.6939186556701
69.6939184694638
69.6939183012
69.6939181509224
69.693918018791
69.6939179045585
69.6939178086614
69.6939177328168
69.6939176785381
69.6939176498563
69.6939176398009
69.6939301106904
69.6939300852828
69.6939300310332
69.6939299421792
69.6939298173384
69.6939296614437
69.6939294782787
69.6939292683383
69.6939290339651
69.69392877676
69.6939284982218
69.6939281998784
69.6939278833597
69.6939275503828
69.6939272027084
69.6939268422138
69.6939264707471
69.6939260902436
69.6939257026243
69.6939253098099
69.6939249136922
69.6939245161047
69.693924118852
69.6939237236656
69.69392333219
69.6939229459967
69.693922566541
69.6939221952052
69.6939218332554
69.6939214818703
69.6939211420831
69.6939208149124
69.6939205012168
69.6939202017529
69.6939199172193
69.6939196482126
69.6939193952858
69.6939191588463
69.693918939287
69.6939187368844
69.6939185518859
69.6939183844079
69.6939182345086
69.6939181023627
69.6939179875772
69.6939178908651
69.6939178141038
69.6939177587483
69.6939177297463
69.6939177196327
69.6939300228114
69.6939299981896
69.6939299457154
69.6939298606303
69.6939297399949
69.6939295888878
69.6939294108306
69.6939292060124
69.6939289768925
69.6939287250425
69.6939284519467
69.6939281591331
69.6939278482168
69.6939275209006
69.6939271789306
69.6939268241549
69.6939264584216
69.6939260836662
69.6939257017657
69.6939253146411
69.6939249241696
69.6939245321701
69.6939241404471
69.693923750674
69.6939233645244
69.6939229835116
69.6939226090908
69.693922242659
69.6939218854386
69.6939215385646
69.6939212031284
69.6939208800468
69.6939205701783
69.6939202742797
69.6939199930202
69.6939197269967
69.6939194766892
69.6939192425489
69.6939190249104
69.6939188240503
69.6939186402014
69.693918473451
69.6939183238428
69.6939181915805
69.693918076111
69.6939179784677
69.6939179006731
69.6939178439789
69.6939178145549
69.6939178041794
69.6939299443475
69.6939299207879
69.6939298702928
69.6939297892532
69.6939296729252
69.6939295267075
69.6939293538453
69.6939291541639
69.6939289303118
69.6939286837878
69.6939284160908
69.6939281287487
69.6939278233476
69.6939275015902
69.6939271652227
69.693926816064
69.6939264559769
69.6939260868385
69.693925710555
69.6939253290184
69.693924944062
69.693924557534
69.6939241711952
69.6939237867336
69.6939234057791
69.6939230298449
69.6939226603863
69.6939222987276
69.6939219461055
69.6939216036699
69.6939212724392
69.6939209533302
69.6939206472016
69.6939203547809
69.6939200767229
69.6939198135806
69.6939195658342
69.6939193338912
69.6939191181009
69.6939189187106
69.6939187359094
69.6939185698138
69.6939184204239
69.6939182879287
69.6939181716298
69.6939180728659
69.6939179938345
69.6939179355104
69.693917905417
69.693917894605
69.6939298766374
69.693929854373
69.6939298060315
69.6939297293138
69.6939296174241
69.6939294762706
69.6939293086762
69.6939291141607
69.6939288955327
69.6939286543056
69.6939283919346
69.6939281099621
69.6939278100035
69.6939274937031
69.6939271628216
69.6939268191782
69.6939264645916
69.6939261009538
69.6939257301565
69.6939253540477
69.6939249745046
69.6939245933172
69.6939242122462
69.6939238329505
69.69392345706
69.6939230860589
69.6939227214025
69.6939223644004
69.6939220162749
69.6939216781175
69.6939213509759
69.6939210357523
69.6939207332471
69.6939204442024
69.6939201692148
69.693919908852
69.6939196635794
69.693919433761
69.6939192197169
69.693919021709
69.6939188398683
69.6939186743257
69.6939185250376
69.6939183922223
69.6939182748756
69.6939181747584
69.6939180943154
69.6939180339832
69.6939180030022
69.6939179914334
69.6939298211801
69.69392980056
69.6939297546633
69.6939296826458
69.6939295752964
69.693929439396
69.6939292771713
69.6939290878217
69.6939288744179
69.6939286384295
69.6939283813263
69.6939281046652
69.6939278100181
69.6939274990727
69.6939271735464
69.693926835258
69.6939264860412
69.693926127773
69.6939257622726
69.6939253914752
69.6939250171708
69.6939246411639
69.6939242651861
69.6939238909108
69.6939235199388
69.6939231537399
69.6939227937255
69.6939224412345
69.6939220974455
69.6939217634645
69.693921440281
69.6939211287972
69.6939208298136
69.6939205439994
69.693920271995
69.6939200142951
69.69391977138
69.6939195435698
69.6939193311991
69.6939191344572
69.6939189534896
69.6939187883836
69.6939186390809
69.6939185057709
69.6939183872018
69.6939182854112
69.6939182033093
69.6939181405323
69.6939181083144
69.6939180956979
69.693929779125
69.693929760484
69.6939297172794
69.6939296503988
69.6939295477059
69.6939294172771
69.6939292605093
69.6939290763548
69.693928868146
69.6939286373236
69.6939283854008
69.6939281139203
69.6939278244681
69.6939275187324
69.6939271984302
69.6939268653514
69.6939265213441
69.6939261682564
69.6939258079365
69.6939254422614
69.6939250730356
69.6939247020346
69.6939243309898
69.6939239615604
69.6939235953178
69.6939232337463
69.693922878243
69.693922530103
69.693922190505
69.6939218605257
69.6939215411549
69.6939212332654
69.6939209376287
69.6939206549432
69.6939203857764
69.6939201306377
69.6939198899636