/*--------------------------------*- C++ -*----------------------------------*\
  =========                 |
  \\      /  F ield         | OpenFOAM: The Open Source CFD Toolbox
   \\    /   O peration     | Website:  https://openfoam.org
    \\  /    A nd           | Version:  10
     \\/     M anipulation  |
\*---------------------------------------------------------------------------*/
FoamFile
{
    format      ascii;
    class       surfaceScalarField;
    location    "2.6";
    object      phi;
}
// * * * * * * * * * * * * * * * * * * * * * * * * * * * * * * * * * * * * * //

dimensions      [1 0 -1 0 0 0 0];

internalField   nonuniform List<scalar> 
4900
(
-6.25919532319594e-12
6.7772252774432e-12
-7.11270923686581e-12
1.63227056895768e-12
-5.00517146673634e-12
-1.27835815233779e-12
-3.26721373959231e-12
-9.18335664038427e-13
-2.09314401238238e-12
-3.69594213600658e-13
-1.3676105651168e-12
6.93859621608043e-14
-8.96635083284492e-13
3.18770975339781e-13
-5.66240543757752e-13
4.56046219391482e-13
-3.16653966792507e-13
5.33915027999613e-13
-1.16784135105491e-13
5.80481591687487e-13
4.89565187444501e-14
6.11136394034097e-13
1.89135231490036e-13
6.32963417722293e-13
3.08965544281879e-13
6.49396497166599e-13
4.11907019517441e-13
6.62250243095322e-13
5.00411931967491e-13
6.72566983368084e-13
5.76371860173295e-13
6.80926106951218e-13
6.41274860420275e-13
6.87754444071714e-13
6.96348876752711e-13
6.93325529171995e-13
7.42658136097237e-13
6.97835282142394e-13
7.81129536586285e-13
7.0143374070736e-13
8.12616161549367e-13
7.04232419400547e-13
8.37902782348849e-13
7.06306410894748e-13
8.57728480950888e-13
7.07739694619759e-13
8.72804418997372e-13
7.08558819991997e-13
8.83837023929539e-13
7.08805327859697e-13
8.91513582905157e-13
7.08489071433706e-13
8.96538905364948e-13
7.07627639294443e-13
8.99626510867316e-13
7.06197322360232e-13
9.0151204539436e-13
7.04209411208027e-13
9.02949855430717e-13
7.01627199323435e-13
9.04785918314639e-13
6.98392318783579e-13
9.07918790468738e-13
6.94434204485445e-13
9.13358631446392e-13
6.89674083807541e-13
9.22239571725485e-13
6.83970931991991e-13
9.3595081544441e-13
6.77100887027903e-13
9.56119411493383e-13
6.68807755131526e-13
9.84808674638657e-13
6.58679261695176e-13
1.02465864074911e-12
6.46107834445947e-13
1.07931035347177e-12
6.30085689200365e-13
1.15418779845251e-12
6.08744008203574e-13
1.25818192274592e-12
5.78524084093883e-13
1.40726396616767e-12
5.32188042667572e-13
1.63317400775677e-12
4.5396422323327e-13
1.99732189982956e-12
3.14619680598141e-13
2.61477156863651e-12
6.20634113397606e-14
3.68456541375935e-12
-3.84763285266979e-13
5.33024207448132e-12
-9.47785523001113e-13
7.40078887635811e-12
-1.35362870182858e-12
6.47146673193346e-12
1.63670529734632e-12
6.95135694106016e-12
-6.53657173130217e-12
1.40174823691117e-11
-1.08428677446991e-11
6.91175272884906e-12
-8.76587908180334e-12
-2.3545850692633e-12
-6.31075760418771e-12
-2.3955794824373e-12
-4.53448927509516e-12
-1.19083946694671e-12
-3.33080829967184e-12
-1.92915202733733e-13
-2.48893805524651e-12
4.11157433371675e-13
-1.86253146573405e-12
7.59613320898575e-13
-1.36962075203074e-12
9.67353697828863e-13
-9.67045314991811e-13
1.10042159547934e-12
-6.30362518414086e-13
1.19273154134151e-12
-3.44580016279656e-13
1.26088154822676e-12
-9.96652654699054e-14
1.31336773730719e-12
1.11494592979758e-13
1.35500416440124e-12
2.94170367659837e-13
1.38872407643066e-12
4.52462165527302e-13
1.41630595864749e-12
5.89662667767457e-13
1.43901510195312e-12
7.08473723694613e-13
1.45773453800025e-12
8.11213511969811e-13
1.4730827571833e-12
8.99899249569175e-13
1.4855276745822e-12
9.76360565678523e-13
1.49541232022887e-12
1.04225923113108e-12
1.5029901372722e-12
1.09915409262169e-12
1.50849166132156e-12
1.14851653501249e-12
1.51203195803378e-12
1.19179990482996e-12
1.51371160509612e-12
1.23042530002812e-12
1.51356509822934e-12
1.26584576659703e-12
1.51161646636891e-12
1.29950354254211e-12
1.50783848461858e-12
1.33292879816097e-12
1.5021906057796e-12
1.36769942695248e-12
1.49457214156487e-12
1.40556999947037e-12
1.48478312045001e-12
1.44843153107389e-12
1.47259992208248e-12
1.49842009082948e-12
1.45773405436966e-12
1.55796599769997e-12
1.43973424473623e-12
1.62998661942226e-12
1.4179226475173e-12
1.71796032989946e-12
1.391463625933e-12
1.82622673403962e-12
1.35910695520446e-12
1.96028026013997e-12
1.31905147519045e-12
2.12745908163656e-12
1.26842430971804e-12
2.33803972714745e-12
1.20230193682217e-12
2.60741594343214e-12
1.11187669323208e-12
2.96066724386704e-12
9.80043626750962e-13
3.44233519282265e-12
7.71665117137524e-13
4.13708598207329e-12
4.18258080991425e-13
5.19467039170253e-12
-1.9471121168794e-13
6.83271709856002e-12
-1.21152486097731e-12
9.18643046239083e-12
-2.46829030216362e-12
1.1279716822582e-11
-2.58919397802034e-12
6.86837226825396e-12
6.86997922500984e-12
1.43376761953449e-11
-4.43546291977626e-12
1.91613471530935e-11
-8.44444888703437e-12
1.1846061084739e-11
-7.93188334709586e-12
-1.95995114688162e-12
-6.53079297655858e-12
-2.92801793512577e-12
-5.20763777744322e-12
-1.67402804519956e-12
-4.12726509237179e-12
-4.49344308959473e-13
-3.27869611828306e-12
3.78646877303373e-13
-2.60394922229203e-12
8.96627000015008e-13
-2.05398245843882e-12
1.22578801043093e-12
-1.59735028484055e-12
1.4486859400228e-12
-1.21253988873663e-12
1.6088989651187e-12
-8.84616529143947e-13
1.72965127059744e-12
-6.02800695178465e-13
1.82370115222955e-12
-3.59071703849809e-13
1.89871198560902e-12
-1.47297939578345e-13
1.95956301387533e-12
3.73321864320826e-14
2.00938582836547e-12
1.98718863688146e-13
2.05039068536059e-12
3.40088289066823e-13
2.08415370666492e-12
4.64194425291339e-13
2.11180268867951e-12
5.73429500851753e-13
2.13418346904523e-12
6.69950553576901e-13
2.15191538971186e-12
7.55702243163165e-13
2.16547367974468e-12
8.325114806954e-13
2.17524776000051e-12
9.02096899693522e-13
2.18146202188768e-12
9.66142611329278e-13
2.18428907841695e-12
1.0262924477881e-12
2.18379763752219e-12
1.08421576721618e-12
2.18002102560653e-12
1.14157570102332e-12
2.17292591018375e-12
1.20013976258001e-12
2.16240119825307e-12
1.26176587966204e-12
2.14824003801955e-12
1.32847664174859e-12
2.1301110428617e-12
1.40247991885518e-12
2.10759024559563e-12
1.48628430788945e-12
2.0801213136666e-12
1.58274937559846e-12
2.0468875213957e-12
1.69525762252106e-12
2.00671894431255e-12
1.82786631996759e-12
1.95808740404361e-12
1.98558721228231e-12
1.89880752441762e-12
2.1746914569856e-12
1.82578022631744e-12
2.40334424147165e-12
1.73420966640767e-12
2.68248428731886e-12
1.61627703016416e-12
3.02722164924029e-12
1.45886343706201e-12
3.45932766853589e-12
1.23803703628698e-12
4.01095447616301e-12
9.08453916919271e-13
4.73263885643057e-12
3.84385427327444e-13
5.68627438882598e-12
-4.56746795338954e-13
6.89253065552839e-12
-1.71197975772512e-12
8.22491982483612e-12
-3.06508860700998e-12
8.78951763102571e-12
-2.38564558981407e-12
4.69354868604687e-12
1.17053790088406e-11
1.94828920573035e-11
-5.16421695805833e-12
2.49858838054423e-11
-6.292847885873e-12
1.38029078044824e-11
-6.42680213939754e-12
-1.04617656496072e-12
-5.86116169075412e-12
-2.76059319854286e-12
-5.00804045995981e-12
-1.82469799506076e-12
-4.15286266058356e-12
-6.18432084226806e-13
-3.40914544710352e-12
3.1326479755565e-13
-2.78657112353814e-12
9.48424117198932e-13
-2.26611499884543e-12
1.37675328222284e-12
-1.82839806643918e-12
1.67929697041391e-12
-1.45695567041426e-12
1.90224797626795e-12
-1.13906281857109e-12
2.072615329497e-12
-8.65005248089965e-13
2.20628493318317e-12
-6.27302223214288e-13
2.31325263788556e-12
-4.20093298017285e-13
2.40008454855592e-12
-2.3871624546361e-13
2.47114862459328e-12
-7.935921666531e-14
2.52954054490255e-12
6.11568275622424e-14
2.57748785164837e-12
1.85553437158002e-13
2.61661163398439e-12
2.96194905363779e-13
2.64812990776215e-12
3.95207862774226e-13
2.67293742401856e-12
4.84506439684606e-13
2.69173122745421e-12
5.65901068286554e-13
2.70504196991265e-12
6.41075686346817e-13
2.71322155958231e-12
7.1168450157653e-13
2.71650823237224e-12
7.7933503108874e-13
2.71501051395386e-12
8.456499065183e-13
2.70877985166752e-12
9.12270518018502e-13
2.69775243598208e-12
9.809256559606e-13
2.68176129999293e-12
1.05343355943337e-12
2.66049563293896e-12
1.13177912342631e-12
2.63348876843328e-12
1.21812951816243e-12
2.60012035509456e-12
1.31494611723278e-12
2.55957061249518e-12
1.42503445531878e-12
2.51066587095562e-12
1.55168925731105e-12
2.4517748113696e-12
1.69882988230057e-12
2.3807283669001e-12
1.87126553656418e-12
2.29446708483474e-12
2.07493022280581e-12
2.18872666817305e-12
2.31737024516798e-12
2.05706386661796e-12
2.60834126067961e-12
1.88932295270479e-12
2.96047659520468e-12
1.66935615978495e-12
3.38994852921636e-12
1.36951872112014e-12
3.91563001878505e-12
9.41938613328852e-13
4.55598358993836e-12
3.02484574349602e-13
5.30403918371035e-12
-6.4244275393926e-13
6.05841426970821e-12
-1.88866289560788e-12
6.58019390299109e-12
-2.97579812644587e-12
6.49148551626489e-12
-1.64742321720647e-12
5.28825928663881e-12
1.3540487422462e-11
2.51506625989731e-11
-4.58125422081467e-12
3.01380616083954e-11
-5.17205708153134e-12
1.50846805906756e-11
-5.53050112149129e-12
-6.14609674928692e-14
-5.24525542385052e-12
-2.4658541070885e-12
-4.62303496364524e-12
-1.89509310600831e-12
-3.92965521310952e-12
-7.74788943353618e-13
-3.293133374948e-12
2.06873977531019e-13
-2.74257411032624e-12
9.24600113141817e-13
-2.27324614185054e-12
1.43166941470231e-12
-1.87354335441095e-12
1.80114524381972e-12
-1.53154236518116e-12
2.07861650189275e-12
-1.23715028208762e-12
2.292976281209e-12
-9.82263784341555e-13
2.46222845190079e-12
-7.60407887928007e-13
2.59810825921921e-12
-5.66376856459527e-13
2.70852637738908e-12
-3.95946922901544e-13
2.79887588467011e-12
-2.45618807799086e-13
2.87301337875764e-12
-1.1244326422709e-13
2.93373669667612e-12
6.12061283540309e-15
2.98310842566578e-12
1.12289457876223e-13
3.02268482234903e-12
2.08063126148944e-13
3.05361266489729e-12
2.95241476238907e-13
3.07679744143696e-12
3.75528603228536e-13
3.09290040205055e-12
4.50509565070426e-13
3.10239417980269e-12
5.21743541214815e-13
3.10557522454882e-12
5.90733761138678e-13
3.10260266311173e-12
6.59007188906424e-13
3.09353486343312e-12
7.28100690991589e-13
3.07828734151801e-12
7.99644546854312e-13
3.05662901938986e-12
8.75341352202269e-13
3.02816356589602e-12
9.57054443267555e-13
2.99229291061844e-12
1.04681155034152e-12
2.94821985753748e-12
1.14690912183446e-12
2.89488478351579e-12
1.25995250745332e-12
2.83079262794638e-12
1.38898009825543e-12
2.75390580767031e-12
1.53756597884802e-12
2.66150268566471e-12
1.71004242876968e-12
2.54977845928337e-12
1.91163731470969e-12
2.41353039870127e-12
2.14883419558747e-12
2.24501619272676e-12
2.42968172823149e-12
2.0323775623038e-12
2.76398903664846e-12
1.75753631024973e-12
3.16298385493871e-12
1.39122705466283e-12
3.63689827571301e-12
8.86689768538139e-13
4.18835358815866e-12
1.68493957788903e-13
4.78935156836584e-12
-8.2289492416509e-13
5.32496180765084e-12
-1.98936926260364e-12
5.58527042539979e-12
-2.76828233059954e-12
5.26822215581574e-12
-8.23717230739496e-13
4.63532266584073e-12
1.46720140901212e-11
3.0076924038615e-11
-3.32244020311694e-12
3.39278092369125e-11
-4.50109415184385e-12
1.68111690954166e-11
-4.96021592614193e-12
8.79387513581026e-13
-4.74225222476803e-12
-2.24397990076178e-12
-4.24128790388688e-12
-1.98062865560971e-12
-3.6668012133962e-12
-9.46477663977163e-13
-3.12294320855564e-12
6.00010760323141e-14
-2.63958723031293e-12
8.35421171388211e-13
-2.21913555120528e-12
1.40331256889909e-12
-1.85562344482377e-12
1.82737554235857e-12
-1.54119817053579e-12
2.15105344403848e-12
-1.26840613834273e-12
2.40370178697632e-12
-1.03083289268097e-12
2.60450086449221e-12
-8.23097609429398e-13
2.76633898672574e-12
-6.4072003188088e-13
2.89810922827698e-12
-4.7996321427767e-13
3.00599634494229e-12
-3.37670366650962e-13
3.09447516170687e-12
-2.11143634618568e-13
3.16682221626429e-12
-9.80320879383521e-14
3.22547978376912e-12
3.73417581519287e-15
3.27229723114617e-12
9.60219690077883e-14
3.30865878454902e-12
1.80528840461301e-13
3.33564607839611e-12
2.58856110876691e-13
3.35405036054504e-12
3.32505816520518e-13
3.3644438056227e-12
4.0294665184356e-13
3.36718845879869e-12
4.71594029579439e-13
3.36248988013078e-12
5.39890381137022e-13
3.35041021110935e-12
6.09286614130438e-13
3.33084513137605e-12
6.81319158273327e-13
3.3035066522841e-12
7.57589844091016e-13
3.26792052962627e-12
8.39849222476951e-13
3.22336821246881e-12
9.29988623995441e-13
3.16889914509954e-12
1.03014084441523e-12
3.10324099965659e-12
1.14271502699408e-12
3.02461017266004e-12
1.27047822332841e-12
2.93063671306737e-12
1.41664576694744e-12
2.81813375329069e-12
1.58503387307155e-12
2.68270529707581e-12
1.78012313179926e-12
2.51843701963836e-12
2.0072735661059e-12
2.31665561653962e-12
2.27276993909459e-12
2.06442818744395e-12
2.5836833879e-12
1.74270016339541e-12
2.94697534049162e-12
1.32208049857235e-12
3.36686473214493e-12
7.58598545343257e-13
3.83829431198063e-12
-1.29598516257293e-14
4.33176451680393e-12
-1.02450395445316e-12
4.75663149673189e-12
-2.11003915581463e-12
4.96135239831711e-12
-2.63867688714192e-12
4.54707382976771e-12
-3.79411268971844e-14
3.35236617673801e-12
1.62359832999361e-11
3.36410633419225e-11
-2.26189786029876e-12
3.65439971042621e-11
-3.90288324943736e-12
1.88525867837482e-11
-4.40967313963647e-12
1.72649251005037e-12
-4.26156261397366e-12
-2.08580684402541e-12
-3.86886723987957e-12
-2.08627972666296e-12
-3.40051098371342e-12
-1.13777339430941e-12
-2.93996560457452e-12
-1.28092392389849e-13
-2.51738626700855e-12
6.83057716687389e-13
-2.14084431924936e-12
1.29525326671525e-12
-1.80934997204518e-12
1.76228733147763e-12
-1.51879575434757e-12
2.12426997454731e-12
-1.26426132665973e-12
2.40981726797328e-12
-1.04098501002389e-12
2.63841101412757e-12
-8.44681053684284e-13
2.82354090286199e-12
-6.71588179016822e-13
2.97471218687523e-12
-5.18459606739717e-13
3.09867493749213e-12
-3.82476210000749e-13
3.20037280261206e-12
-2.61184089540397e-13
3.28346670723044e-12
-1.52413832054015e-13
3.35071568208069e-12
-5.42332093845758e-14
3.40421732501309e-12
3.5113008710877e-14
3.44556534028942e-12
1.17230995364995e-13
3.47599666012705e-12
1.93637949849118e-13
3.49642390246733e-12
2.65765864440204e-13
3.50750389166599e-12
3.3501031581459e-13
3.50966644559198e-12
4.02722344180992e-13
3.50315515921627e-12
4.70274791407721e-13
3.48803906697408e-12
5.39057938541896e-13
3.46418605597906e-12
6.10525162580151e-13
3.43127278123503e-12
6.86199635925929e-13
3.38874268723416e-12
7.67734421071508e-13
3.33577489261657e-12
8.56901581948202e-13
3.27128844577709e-12
9.55693814148292e-13
3.19381761412331e-12
1.06632946951253e-12
3.1013420524944e-12
1.19132569808476e-12
2.99121723362202e-12
1.33354979689163e-12
2.85988942002289e-12
1.49631220305152e-12
2.70252569822136e-12
1.68337056577749e-12
2.51271379607266e-12
1.89898204939183e-12
2.28121858387092e-12
2.14773728741633e-12
1.99461109432548e-12
2.43414725082447e-12
1.63370354443811e-12
2.76138817458731e-12
1.17017073883983e-12
3.12872255858727e-12
5.6393054434693e-13
3.52566199964933e-12
-2.39704838803658e-13
3.9224592269646e-12
-1.25055981556132e-12
4.24898301195218e-12
-2.25604739184157e-12
4.38762263194189e-12
-2.57098477670825e-12
3.92703797156268e-12
6.61037088825974e-13
2.2790575523122e-12
1.81242274105586e-11
3.60511416474214e-11
-1.58580908592908e-12
3.83820214997941e-11
-3.30654363657434e-12
2.08481895933326e-11
-3.83122006632894e-12
2.4781495438596e-12
-3.78236558053106e-12
-1.934055546984e-12
-3.49931379971044e-12
-2.18346498222173e-12
-3.12974798607491e-12
-1.32910299572078e-12
-2.74552074008226e-12
-3.37633216436392e-13
-2.37892526672298e-12
4.89382084155349e-13
-2.04302890670858e-12
1.13080676013867e-12
-1.74119591160658e-12
1.6300354218591e-12
-1.4726571050836e-12
2.02286979538427e-12
-1.23481421049771e-12
2.33617669606231e-12
-1.02447683031109e-12
2.5889894825087e-12
-8.38411410570455e-13
2.79488088289483e-12
-6.73568135835339e-13
2.96363108649855e-12
-5.27190287305523e-13
3.10233674462866e-12
-3.96795589993598e-13
3.21625733204699e-12
-2.80176271660828e-13
3.30934862627755e-12
-1.75340706705239e-13
3.38461674902089e-12
-8.04948548151532e-14
3.44436724678046e-12
6.01070052285185e-15
3.4903696688206e-12
8.56942473015081e-14
3.5239977747627e-12
1.59999962524239e-13
3.546269439312e-12
2.30292215703686e-13
3.55792079582846e-12
2.9790399840552e-13
3.55944300435698e-12
3.64129576281577e-13
3.55111211274153e-12
4.30282946964249e-13
3.53300569234136e-12
4.97692750735513e-13
3.50496664903956e-12
5.67746179918022e-13
3.46663988722026e-12
6.41890125278833e-13
3.41739747407223e-12
7.21687918149344e-13
3.35632896371602e-12
8.08800764439362e-13
3.28224441432124e-12
9.0508637382236e-13
3.19350879502873e-12
1.01257579315271e-12
3.08791765991662e-12
1.13354330477547e-12
2.96260742368456e-12
1.27051254329813e-12
2.81375740990542e-12
1.42630327522216e-12
2.63624268278962e-12
1.60396864005218e-12
2.42336268058597e-12
1.8067128327797e-12
2.16566080708984e-12
2.03755868228749e-12
1.84971363481477e-12
2.29871147772378e-12
1.45691959610112e-12
2.59007568623298e-12
9.60957660401949e-13
2.90678419520326e-12
3.26435914147323e-13
3.23392977848409e-12
-4.90662667833448e-13
3.53996103882519e-12
-1.48105642475583e-12
3.765514727176e-12
-2.39891751215102e-12
3.80283165045313e-12
-2.50470448421099e-12
3.31891579363884e-12
1.27563609099383e-12
1.59110821673793e-12
1.99859728694544e-11
3.77116170046227e-11
-1.18502520105018e-12
3.972788973227e-11
-2.75398471695829e-12
2.25834389819745e-11
-3.27553248956717e-12
3.13062991787491e-12
-3.3226693463742e-12
-1.7744544184714e-12
-3.13879983828536e-12
-2.26514250621867e-12
-2.85698014971586e-12
-1.51416520534747e-12
-2.54151376894655e-12
-5.58949141905582e-13
-2.22653609365879e-12
2.67168467184919e-13
-1.92890803104223e-12
9.24662730845682e-13
-1.65548915878283e-12
1.44638057668762e-12
-1.40829612688835e-12
1.86314665590013e-12
-1.18675602106785e-12
2.19932137535125e-12
-9.89112589182893e-13
2.47289466499816e-12
-8.13120632564023e-13
2.69707612194654e-12
-6.56419471663015e-13
2.88162223224275e-12
-5.16732771159947e-13
3.03376853795453e-12
-3.91919063246423e-13
3.15895187142917e-12
-2.80018076990923e-13
3.26132887444195e-12
-1.79220082552576e-13
3.34408712946852e-12
-8.7869979908751e-14
3.40969600356196e-12
-4.42925119172561e-15
3.46007232897486e-12
7.25316352537727e-14
3.49670317246035e-12
1.44382760835889e-13
3.52069631582843e-12
2.12421958604452e-13
3.53285887065057e-12
2.77920175721676e-13
3.53373884307896e-12
3.42114167757941e-13
3.52363954607703e-12
4.06261315777689e-13
3.50264532414108e-12
4.71624491465831e-13
3.47058412161495e-12
5.39531051649959e-13
3.42706194247279e-12
6.11349085437104e-13
3.37139926700168e-12
6.88549473255866e-13
3.30260863847655e-12
7.7268837224897e-13
3.21940509267235e-12
8.65481094615994e-13
3.12002069733303e-12
9.68774518975406e-13
3.00210976702551e-12
1.08459813725082e-12
2.86264931170045e-12
1.21513740397029e-12
2.69764619663598e-12
1.36273325687409e-12
2.5018215222387e-12
1.52976460490038e-12
2.26837915986872e-12
1.71846168577099e-12
1.98793309673547e-12
1.93044113017179e-12
1.64748843234479e-12
2.16592529720361e-12
1.22959011664395e-12
2.42215922613302e-12
7.10577335002901e-13
2.69107020308308e-12
6.02484867706911e-14
2.9545474698999e-12
-7.54874518815053e-13
3.17947689101201e-12
-1.70842706248163e-12
3.31263697995722e-12
-2.52990114816086e-12
3.24914316200753e-12
-2.42328831465751e-12
2.75751387440448e-12
1.80546984977741e-12
1.1800468911464e-12
2.16058847653004e-11
3.89057785647961e-11
-9.37624188240288e-13
4.07581200639108e-11
-2.28059816458316e-12
2.40166014706318e-11
-2.78207125067739e-12
3.6995247821156e-12
-2.90009366845732e-12
-1.60167596495003e-12
-2.79659059687585e-12
-2.32108327333968e-12
-2.58853026716781e-12
-1.67850868141415e-12
-2.33332068637143e-12
-7.72360860783557e-13
-2.06528074495828e-12
3.98023778846438e-14
-1.80354853524856e-12
7.02445837849792e-13
-1.55750251787501e-12
1.23823278381114e-12
-1.33130749735846e-12
1.67267356219493e-12
-1.12607740185067e-12
2.02715806193623e-12
-9.41295651356631e-13
2.31818039101672e-12
-7.75617757730496e-13
2.5582419129502e-12
-6.27330552046135e-13
2.75682188083119e-12
-4.94616992155114e-13
2.92110561175439e-12
-3.7567438307684e-13
3.05658714936729e-12
-2.68787611996206e-13
3.16753049965474e-12
-1.72331866452654e-13
3.25724337777645e-12
-8.47957034032084e-14
3.32831757168332e-12
-4.75235849587443e-15
3.38278399019016e-12
6.91346135678299e-14
3.42222371428143e-12
1.38155076828204e-13
3.44782106144546e-12
2.03537593600385e-13
3.46044349809468e-12
2.66488970705726e-13
3.46068858832332e-12
3.28187415775842e-13
3.44888285286963e-12
3.89830168206236e-13
3.42511808534761e-12
4.52614423480971e-13
3.38921259338162e-12
5.17800287102551e-13
3.34073537688682e-12
5.86677752767814e-13
3.27896584404841e-12
6.60621753600391e-13
3.20285730874684e-12
7.41079229209407e-13
3.11104332029093e-12
8.2961917139174e-13
3.00166009395386e-12
9.27906666723959e-13
2.87225741684959e-12
1.03772632360402e-12
2.71971530360653e-12
1.16093251555724e-12
2.53995457809612e-12
1.29941140893305e-12
2.32766586706057e-12
1.45491977310861e-12
2.07612251758157e-12
1.62880830632526e-12
1.77626252448572e-12
1.82148539960962e-12
1.41584212639749e-12
2.03155770700303e-12
9.78952194708936e-13
2.25425306173914e-12
4.44981649471455e-13
2.47926579976937e-12
-2.1089409916818e-13
2.68667566349026e-12
-1.01214211947061e-12
2.84329272002585e-12
-1.91740296553674e-12
2.90105170788758e-12
-2.63768095320611e-12
2.76127432472668e-12
-2.32270887953262e-12
2.27667090256675e-12
2.26574229276174e-12
9.24157837735497e-13
2.29377578378476e-11
3.98097296700944e-11
-7.69982302777134e-13
4.15697837133778e-11
-1.89173658851734e-12
2.51736854146825e-11
-2.36132101592288e-12
4.19090312152153e-12
-2.52191655449443e-12
-1.42703937902541e-12
-2.4786385120442e-12
-2.35486956248443e-12
-2.32994586111818e-12
-1.82027432686323e-12
-2.12616233300336e-12
-9.70610063638474e-13
-1.9000379689772e-12
-1.81735635676045e-13
-1.6715575429318e-12
4.77460465916616e-13
-1.45165478112917e-12
1.02027228618018e-12
-1.24602310373247e-12
1.46689707898148e-12
-1.05709623301835e-12
1.83554293016349e-12
-8.85387983864988e-13
2.14090857176067e-12
-7.30341855230425e-13
2.39453891140614e-12
-5.90827017962052e-13
2.60542694559668e-12
-4.65457736542192e-13
2.78055494618967e-12
-3.52753984755337e-13
2.9253658750109e-12
-2.51239858904651e-13
3.04414641986386e-12
-1.59477016267353e-13
3.14027169333687e-12
-7.6100539189964e-14
3.21641513175012e-12
2.03333904966578e-16
3.27468686381294e-12
7.06737755470402e-14
3.31674656272486e-12
1.3651989898271e-13
3.34383700599866e-12
1.98892703686461e-13
3.35688233527475e-12
2.58937495346408e-13
3.35651393573332e-12
3.17764413936101e-13
3.34308708820298e-12
3.76507874459485e-13
3.31669555961089e-12
4.36299452108903e-13
3.27715115155396e-12
4.98324512863579e-13
3.22399405066111e-12
5.6379301937395e-13
3.15646881815864e-12
6.33981064394295e-13
3.07348779158382e-12
7.10222432302156e-13
2.9736177970901e-12
7.93945484136436e-13
2.85492622734992e-12
8.86630653305525e-13
2.71490290919859e-12
9.89823931031942e-13
2.55038570399881e-12
1.10506340365008e-12
2.35728758934048e-12
1.2338138869591e-12
2.13037290130087e-12
1.37727257158803e-12
1.86312343586207e-12
1.53603255623461e-12
1.54699736674838e-12
1.70950540048554e-12
1.17074027252535e-12
1.89505632754867e-12
7.20231239220267e-13
2.0865109912162e-12
1.78068354173314e-13
2.27224413970096e-12
-4.75300185120497e-13
2.43181301869626e-12
-1.25422338662567e-12
2.53354181669644e-12
-2.10474196117215e-12
2.53460324971327e-12
-2.72399621254519e-12
2.34760436304408e-12
-2.21472331083697e-12
1.88208557704757e-12
2.66083104655459e-12
7.50121437057833e-13
2.40025772355788e-11
4.0512192194616e-11
-6.45883861280713e-13
4.22288376983354e-11
-1.57694575996181e-12
2.61132936914819e-11
-2.00743462971927e-12
4.62373706447701e-12
-2.18774526706605e-12
-1.24948716374654e-12
-2.18700030848988e-12
-2.3616092896889e-12
-2.08457117019226e-12
-1.9305556437632e-12
-1.92371958168595e-12
-1.14040997381829e-12
-1.73438630904494e-12
-3.80878819354249e-13
-1.53626236725369e-12
2.68462907311517e-13
-1.34100756994335e-12
8.12633890997746e-13
-1.15529527902035e-12
1.26679145872661e-12
-9.82513383570427e-13
1.64592912097288e-12
-8.23990152279421e-13
1.9628005092019e-12
-6.79827453399268e-13
2.22782792538471e-12
-5.49404670146745e-13
2.44936504693017e-12
-4.31727230636799e-13
2.63407107087287e-12
-3.25614703616601e-13
2.78724434786887e-12
-2.29821094611595e-13
2.91312481973072e-12
-1.43089973243033e-13
3.015105171972e-12
-6.41976977810189e-14
3.09590010938619e-12
8.0497126070394e-15
3.15767679093526e-12
7.4793871196439e-14
3.20215021138162e-12
1.37158160359115e-13
3.2306099935764e-12
1.96217378011799e-13
3.24402672398058e-12
2.53046755261114e-13
3.24305879151708e-12
3.08688503255727e-13
3.22808879303306e-12
3.64210039823773e-13
3.19921072651962e-12
4.20672087210896e-13
3.15623385981148e-12
4.7918538492137e-13
3.09867322119938e-12
5.40875296017081e-13
3.02574875859151e-12
6.0692022449753e-13
2.93634435481034e-12
6.78535574020204e-13
2.82898147301994e-12
7.57009926095698e-13
2.70167968890186e-12
8.43643653388563e-13
2.55191070446385e-12
9.39762294957094e-13
2.3765095712709e-12
1.04660454792829e-12
2.17146211957391e-12
1.16525693862925e-12
1.93168556673074e-12
1.29643022161386e-12
1.65098005005271e-12
1.44009103415043e-12
1.32146517386499e-12
1.5948677563114e-12
9.33037407722929e-13
1.75723901762622e-12
4.7347379239451e-13
1.9201793186959e-12
-7.14468981547845e-14
2.07151727886855e-12
-7.16317436362747e-13
2.19131249006833e-12
-1.46749935186962e-12
2.25055706154352e-12
-2.26092222595675e-12
2.21168063541619e-12
-2.7833351622372e-12
2.0014139161082e-12
-2.10034265375634e-12
1.5638219481586e-12
3.00676022487609e-12
6.21433000632505e-13
2.48552326491916e-11
4.10756786050593e-11
-5.47768764804186e-13
4.27741951352895e-11
-1.32119861446685e-12
2.68820809243533e-11
-1.7095073262078e-12
5.00485079282806e-12
-1.8936725583092e-12
-1.07566360337756e-12
-1.92122410365731e-12
-2.34657424451237e-12
-1.85389283928574e-12
-2.01175993798937e-12
-1.72821710571855e-12
-1.28087058056267e-12
-1.57069512916505e-12
-5.54015831436305e-13
-1.39991878722268e-12
8.10048483749572e-14
-1.22762297488495e-12
6.22168586396411e-13
-1.06098003196796e-12
1.08003243418114e-12
-9.04007843026637e-13
1.46649859425617e-12
-7.58644072132999e-13
1.79234285831002e-12
-6.25511771996406e-13
2.06676748630369e-12
-5.04423199046184e-13
2.29739280233431e-12
-3.94724688848677e-13
2.49045953446053e-12
-2.95509934598202e-13
2.65105313980964e-12
-2.05746559362447e-13
2.78330578374283e-12
-1.24351804026573e-13
2.89058768163846e-12
-5.02408994416685e-14
2.97561809465863e-12
1.76625831285912e-14
3.04059969535556e-12
8.04029228944773e-14
3.08728255168826e-12
1.39013017849867e-13
3.11699409454028e-12
1.94491605414044e-13
3.13073836114696e-12
2.4783649018271e-13
3.12920033829755e-12
3.00022284773091e-13
3.11278084304352e-12
3.52045759973589e-13
3.08157598500942e-12
4.04894869181395e-13
3.03539558171489e-12
4.59602153146404e-13
2.97373394175478e-12
5.17206266710107e-13
2.89579489341855e-12
5.78787080033028e-13
2.80044594816904e-12
6.45442884349981e-13
2.68618151233454e-12
7.18330272719859e-13
2.5509889296496e-12
7.98576045454158e-13
2.39236274556275e-12
8.87295479556856e-13
2.20717266695695e-12
9.85459765181215e-13
1.99153638296827e-12
1.09382394872444e-12
1.74058824240398e-12
1.21269154534234e-12
1.44852586389743e-12
1.34153313696039e-12
1.10822302844109e-12
1.47840356267732e-12
7.10813984143167e-13
1.61920933157048e-12
2.45984868767018e-13
1.7565357822153e-12
-2.97471519491017e-13
1.87827988358017e-12
-9.29648714710045e-13
1.96572603476218e-12
-1.65015529733552e-12
1.9931400330323e-12
-2.38716932088973e-12
1.92804039347705e-12
-2.81960125626328e-12
1.71164653768985e-12
-1.98624551727096e-12
1.3073339948304e-12
3.30830313962876e-12
5.21148709994643e-13
2.55395766311729e-11
4.15316377784074e-11
-4.67001078260479e-13
4.32377404056437e-11
-1.1112407167924e-12
2.75254534380882e-11
-1.45668513075159e-12
5.34923370453015e-12
-1.6345688487104e-12
-9.01659705773498e-13
-1.67951251422329e-12
-2.30758573936587e-12
-1.63813586759667e-12
-2.06035123708345e-12
-1.54082509686098e-12
-1.38628014761498e-12
-1.41046714636711e-12
-6.93323463271038e-13
-1.26405517379002e-12
-7.54409491900117e-14
-1.11292010203657e-12
4.59531707977353e-13
-9.64350388579984e-13
9.18078194496532e-13
-8.22710740774638e-13
1.30923128108968e-12
-6.9035509143875e-13
1.64184545488442e-12
-5.68298373258898e-13
1.92386807034271e-12
-4.56704511904104e-13
2.16213888415783e-12
-3.55209360786985e-13
2.36241491983523e-12
-2.63145336093194e-13
2.5295163399587e-12
-1.79678579514417e-13
2.66742619905257e-12
-1.03885412298542e-13
2.77945154028773e-12
-3.48194366794062e-14
2.86829598024761e-12
2.84848118558423e-14
2.93616891360772e-12
8.69692149874746e-14
2.98484619952083e-12
1.41580233557785e-13
3.01567788962325e-12
1.93236835154862e-13
3.0296933794724e-12
2.42860004758183e-13
3.02760161444543e-12
2.91351206534698e-13
3.00981730087613e-12
3.39635716369797e-13
2.97643765974097e-12
3.88625479085607e-13
2.92727695115358e-12
4.39272228395787e-13
2.86181329351491e-12
4.92528987617414e-13
2.7792402904751e-12
5.49377026143942e-13
2.67842055731078e-12
6.10802873093031e-13
2.55783546725212e-12
6.77827277837694e-13
2.41546372809016e-12
7.5142353194739e-13
2.24884112187217e-12
8.32510874591547e-13
2.05491499657564e-12
9.2183228880515e-13
1.82996741561599e-12
1.01985448711647e-12
1.56941227184346e-12
1.12655296372057e-12
1.2678878332039e-12
1.24102801171934e-12
9.19071104136767e-13
1.36095536140561e-12
5.153560494823e-13
1.48194327908971e-12
4.82765281401205e-14
1.59654909594222e-12
-4.90607213100992e-13
1.69319800089522e-12
-1.10743933788211e-12
1.75484497528333e-12
-1.79628239370693e-12
1.7592106926716e-12
-2.47961218190004e-12
1.67856613944619e-12
-2.83044559886154e-12
1.46722505951684e-12
-1.8697385380595e-12
1.09921942292012e-12
3.57835205407721e-12
4.40380411257456e-13
2.60998500795673e-11