/*--------------------------------*- C++ -*----------------------------------*\
  =========                 |
  \\      /  F ield         | OpenFOAM: The Open Source CFD Toolbox
   \\    /   O peration     | Website:  https://openfoam.org
    \\  /    A nd           | Version:  10
     \\/     M anipulation  |
\*---------------------------------------------------------------------------*/
FoamFile
{
    format      ascii;
    class       volScalarField;
    location    "2.6";
    object      rho;
}
// * * * * * * * * * * * * * * * * * * * * * * * * * * * * * * * * * * * * * //

dimensions      [1 -3 0 0 0 0 0];

internalField   nonuniform List<scalar> 
2500
(
1.14194935142313
1.14211149604603
1.14221043051278
1.14224564947361
1.14225677181487
1.14226018598068
1.14226119687793
1.14226148583119
1.14226156899708
1.14226159203407
1.14226160404504
1.14226161036659
1.14226161390736
1.14226161822512
1.14226162224299
1.14226162667943
1.14226162899407
1.14226163185031
1.14226163509561
1.14226163741332
1.14226163965695
1.14226164200538
1.14226164409066
1.14226164486119
1.14226164570172
1.1422616469989
1.14226164733317
1.14226164769993
1.14226164814473
1.14226164771209
1.14226164719778
1.14226164671607
1.14226164540225
1.14226164359244
1.14226164191323
1.14226164022035
1.14226163830303
1.14226163662033
1.14226163296906
1.14226162842735
1.14226161878863
1.14226159052064
1.14226149525187
1.14226116909339
1.14226007482946
1.14225656648434
1.14224544784587
1.14221032835655
1.14210996216721
1.14194973047603
1.1495703733326
1.14998617346202
1.15026637678975
1.15038004403379
1.15042166809493
1.15043615064155
1.15044088012332
1.15044231247963
1.15044271529339
1.15044282064547
1.15044284906982
1.15044285706007
1.15044285922847
1.15044286100937
1.15044286259533
1.15044286424176
1.15044286516432
1.15044286628337
1.15044286760613
1.15044286868886
1.15044287008195
1.15044287192877
1.15044287371835
1.15044287412233
1.15044287433581
1.15044287524121
1.15044287532276
1.15044287532976
1.15044287578478
1.15044287519296
1.15044287496226
1.15044287547227
1.15044287388287
1.15044287157441
1.15044287053697
1.15044286992091
1.15044286919713
1.15044286829838
1.1504428651676
1.1504428557009
1.15044281994215
1.15044268644517
1.15044221231356
1.15044062488348
1.15043564740308
1.15042099489013
1.1503797171288
1.15026654950294
1.14998100748983
1.14956442463175
1.15538338600673
1.15581931803885
1.15610947236948
1.15622925702537
1.15627330813067
1.15628870655791
1.15629377921742
1.15629533272625
1.15629577344427
1.15629588932721
1.15629591948278
1.15629592699891
1.15629592756214
1.15629592787615
1.15629592811847
1.15629592818548
1.15629592820662
1.15629592827603
1.15629592860923
1.15629592891213
1.15629592952588
1.15629593054717
1.15629593170832
1.15629593210055
1.1562959320477
1.15629593233839
1.15629593230252
1.15629593217898
1.15629593231489
1.15629593199559
1.15629593198757
1.15629593251402
1.15629593137637
1.15629592955217
1.15629592936451
1.15629592957089
1.15629592943908
1.15629592929263
1.1562959269087
1.15629591784001
1.15629588111135
1.15629574043147
1.15629523925415
1.1562935617464
1.15628830867651
1.15627283235878
1.1562291180782
1.15610928932299
1.1558121999987
1.15536374827328
1.15886446014239
1.15917329416031
1.15935421971634
1.15942755576074
1.15945337327186
1.15946206266679
1.15946486369604
1.15946571499805
1.15946595660332
1.15946602028563
1.15946603696878
1.15946604073384
1.15946604046249
1.15946604034816
1.15946604021582
1.15946604008519
1.15946603999561
1.15946603993688
1.15946603997114
1.15946603993694
1.15946604001089
1.15946604042957
1.15946604105397
1.15946604130548
1.15946604115505
1.1594660411722
1.15946604117573
1.15946604101137
1.15946604090055
1.15946604080088
1.15946604084558
1.15946604118309
1.15946604061406
1.15946603960901
1.15946603964636
1.15946603980405
1.1594660398313
1.15946604005765
1.15946603913986
1.15946603503264
1.15946601674337
1.15946594437331
1.15946568278526
1.15946479249943
1.15946194034581
1.15945325013974
1.15942754131886
1.15935363743671
1.1591672523781
1.15884178326697
1.1606052874419
1.16077667989657
1.16086453076532
1.16089973105137
1.16091174607266
1.16091567226155
1.16091691736138
1.16091729476501
1.16091740247486
1.16091743106541
1.16091743864198
1.1609174402382
1.16091743992897
1.16091743974654
1.16091743960395
1.1609174394958
1.16091743938735
1.16091743929881
1.16091743926946
1.16091743924504
1.16091743922368
1.16091743931938
1.16091743959633
1.16091743969684
1.16091743958772
1.16091743955832
1.16091743953941
1.16091743943021
1.16091743934764
1.16091743930955
1.16091743933272
1.16091743949233
1.16091743924829
1.16091743884555
1.16091743886473
1.16091743892023
1.16091743896726
1.16091743907665
1.16091743893876
1.1609174374946
1.16091742991174
1.16091739939647
1.16091728818665
1.16091690618178
1.16091566273453
1.16091177103633
1.16089981767501
1.16086419544418
1.16077300399101
1.16058829290633
1.16136241422199
1.1614424245698
1.16147851724671
1.16149289343558
1.1614977070237
1.16149924640173
1.16149972856258
1.16149987465471
1.16149991665709
1.16149992790283
1.16149993090963
1.1614999315051
1.16149993132341
1.16149993120177
1.16149993111311
1.16149993104956
1.1614999309807
1.16149993092269
1.16149993089111
1.16149993087876
1.16149993084855
1.16149993087086
1.16149993095908
1.16149993096541
1.16149993092607
1.16149993090515
1.16149993088082
1.16149993082551
1.16149993078037
1.16149993075949
1.16149993076599
1.1614999308261
1.16149993073339
1.16149993059744
1.1614999306018
1.16149993062109
1.16149993065674
1.16149993071543
1.16149993071976
1.16149993025101
1.16149992747937
1.16149991608132
1.161499874413
1.16149973082381
1.1614992588474
1.16149775163365
1.16149298827126
1.16147842322098
1.16144065010642
1.16135259238112
1.1616569996265
1.16168976366872
1.16170291888063
1.16170813887066
1.16170986855862
1.16171041356246
1.16171058264446
1.16171063389073
1.16171064873227
1.16171065274949
1.16171065381622
1.16171065400148
1.16171065392259
1.16171065386067
1.16171065381436
1.16171065377964
1.16171065374421
1.16171065371482
1.16171065369397
1.16171065368427
1.16171065366354
1.16171065366496
1.16171065368239
1.161710653668
1.16171065365052
1.16171065363702
1.16171065362214
1.16171065359815
1.16171065357611
1.16171065356221
1.16171065356058
1.1617106535779
1.1617106535442
1.16171065350176
1.16171065350126
1.16171065350635
1.16171065352325
1.16171065354998
1.16171065356486
1.16171065342299
1.16171065248474
1.16171064857349
1.1617106342909
1.16171058513656
1.16171042280442
1.1617098970013
1.16170820052247
1.1617029188127
1.16168904286857
1.16165226046426
1.16176163358648
1.16177372936168
1.16177811460488
1.16177984642501
1.16178041777376
1.16178059612282
1.16178065104653
1.16178066769387
1.16178067254429
1.16178067386981
1.16178067421166
1.1617806742594
1.16178067422888
1.16178067419989
1.16178067417624
1.16178067415736
1.16178067413947
1.16178067412397
1.16178067411064
1.16178067410191
1.16178067408867
1.16178067408315
1.16178067408065
1.16178067406745
1.1617806740564
1.16178067404673
1.16178067403712
1.16178067402527
1.16178067401315
1.16178067400319
1.16178067399828
1.16178067399968
1.16178067398597
1.16178067397154
1.16178067396879
1.16178067396787
1.16178067397245
1.1617806739813
1.16178067398797
1.16178067394541
1.16178067364383
1.16178067238565
1.16178066781208
1.16178065214179
1.16178060035215
1.16178043106583
1.16177987705565
1.161778130268
1.16177347405694
1.16175963641215
1.16179606707931
1.16180017052827
1.16180153528154
1.16180207012762
1.16180224647109
1.16180230124247
1.16180231801445
1.16180232309394
1.161802324579
1.1618023249858
1.16180232508522
1.1618023250934
1.16180232507933
1.16180232506463
1.16180232505138
1.16180232503985
1.16180232502896
1.16180232501879
1.16180232500898
1.16180232500063
1.1618023249915
1.16180232498387
1.16180232497642
1.16180232496686
1.16180232495825
1.16180232495014
1.16180232494223
1.16180232493402
1.16180232492565
1.1618023249178
1.16180232491194
1.16180232490811
1.16180232490029
1.16180232489305
1.16180232488898
1.16180232488557
1.16180232488432
1.16180232488484
1.16180232488518
1.16180232487079
1.16180232477672
1.16180232439193
1.16180232300514
1.16180231828634
1.16180230272679
1.16180225161811
1.16180208285086
1.16180154587652
1.16180008990847
1.16179531047997
1.16180667789685
1.16180797511858
1.16180837732816
1.16180853316028
1.16180858460946
1.16180860056214
1.16180860542597
1.16180860689536
1.16180860732398
1.16180860743935
1.16180860746385
1.16180860746146
1.16180860745275
1.16180860744348
1.16180860743442
1.16180860742583
1.16180860741741
1.16180860740903
1.16180860740067
1.16180860739281
1.16180860738492
1.16180860737713
1.16180860736929
1.16180860736117
1.16180860735345
1.16180860734596
1.16180860733862
1.1618086073314
1.16180860732426
1.16180860731735
1.16180860731125
1.16180860730586
1.16180860729965
1.16180860729395
1.16180860728922
1.16180860728483
1.16180860728132
1.16180860727858
1.16180860727603
1.16180860726938
1.16180860723956
1.16180860712571
1.16180860672317
1.16180860536751
1.16180860091935
1.16180858628868
1.16180853774211
1.16180838222164
1.16180795207266
1.16180641500802
1.16180975765028
1.16181014387117
1.16181025722756
1.16181030048784
1.16181031479919
1.16181031923907
1.16181032058744
1.16181032099199
1.16181032110773
1.16181032113622
1.16181032113892
1.16181032113387
1.1618103211269
1.16181032111951
1.161810321112
1.16181032110448
1.1618103210969
1.16181032108924
1.16181032108149
1.16181032107383
1.1618103210662
1.16181032105859
1.16181032105099
1.16181032104341
1.16181032103602
1.16181032102878
1.16181032102168
1.16181032101477
1.16181032100802
1.16181032100148
1.16181032099533
1.16181032098955
1.16181032098376
1.16181032097834
1.16181032097335
1.16181032096864
1.16181032096438
1.16181032096055
1.16181032095697
1.16181032095245
1.16181032094166
1.16181032090775
1.1618103207942
1.16181032041934
1.16181031919991
1.16181031519646
1.16181030189133
1.16181025903225
1.1618101377937
1.16180967258127
1.16181059543533
1.1618107046315
1.16181073538947
1.16181074691734
1.16181075073699
1.16181075192345
1.16181075228136
1.16181075238633
1.16181075241386
1.16181075241777
1.16181075241446
1.1618107524088
1.16181075240239
1.16181075239564
1.16181075238867
1.16181075238154
1.16181075237427
1.16181075236689
1.16181075235941
1.1618107523519
1.1618107523444
1.16181075233692
1.16181075232949
1.16181075232212
1.16181075231488
1.16181075230776
1.1618107523008
1.16181075229401
1.16181075228742
1.16181075228104
1.16181075227492
1.16181075226907
1.16181075226343
1.16181075225806
1.161810752253
1.16181075224823
1.16181075224377
1.16181075223964
1.16181075223579
1.16181075223189
1.16181075222652
1.16181075221519
1.16181075218288
1.16181075208172
1.16181075175874
1.1618107507049
1.16181074720684
1.16181073588459
1.16181070305992
1.16181056943817
1.16181079942699
1.16181082893863
1.16181083701097
1.16181083997588
1.16181084095808
1.16181084126258
1.16181084135242
1.16181084137645
1.16181084138015
1.16181084137743
1.16181084137255
1.16181084136678
1.16181084136057
1.16181084135406
1.16181084134729
1.16181084134033
1.16181084133321
1.16181084132596
1.16181084131862
1.16181084131123
1.16181084130384
1.16181084129646
1.16181084128913
1.16181084128187
1.16181084127472
1.1618108412677
1.16181084126084
1.16181084125414
1.16181084124764
1.16181084124135
1.1618108412353
1.16181084122949
1.16181084122391
1.1618108412186
1.16181084121357
1.16181084120882
1.16181084120435
1.16181084120018
1.16181084119629
1.1618108411926
1.16181084118875
1.16181084118358
1.16181084117325
1.16181084114557
1.16181084106181
1.16181084079313
1.16181083990587
1.16181083702223
1.16181082844264
1.16181079177671
1.16181083213904
1.16181083980398
1.16181084185973
1.16181084259827
1.16181084284157
1.16181084291557
1.16181084293537
1.16181084293831
1.16181084293582
1.1618108429314
1.16181084292614
1.16181084292039
1.16181084291428
1.16181084290788
1.16181084290122
1.16181084289436
1.16181084288734
1.16181084288019
1.16181084287295
1.16181084286566
1.16181084285835
1.16181084285106
1.16181084284382
1.16181084283665
1.1618108428296
1.16181084282267
1.16181084281588
1.16181084280928
1.16181084280286
1.16181084279665
1.16181084279067
1.16181084278492
1.16181084277942
1.16181084277418
1.1618108427692
1.1618108427645
1.16181084276008
1.16181084275595
1.16181084275209
1.1618108427485
1.16181084274509
1.16181084274158
1.16181084273702
1.1618108427284
1.16181084270625
1.16181084263899
1.16181084242045
1.16181084170889
1.16181083953552
1.16181082987143
1.16181082036189
1.16181082228327
1.16181082279234
1.16181082297044
1.16181082302763
1.16181082304333
1.16181082304542
1.16181082304306
1.16181082303903
1.16181082303421
1.1618108230289
1.16181082302319
1.16181082301715
1.16181082301083
1.16181082300426
1.16181082299748
1.16181082299055
1.16181082298348
1.16181082297633
1.16181082296913
1.16181082296192
1.16181082295472
1.16181082294757
1.16181082294049
1.16181082293352
1.16181082292668
1.16181082291999
1.16181082291346
1.16181082290713
1.161810822901
1.1618108228951
1.16181082288943
1.161810822884
1.16181082287883
1.16181082287393
1.16181082286929
1.16181082286494
1.16181082286086
1.16181082285707
1.16181082285355
1.1618108228503
1.16181082284725
1.16181082284418
1.16181082284037
1.1618108228336
1.16181082281633
1.1618108227633
1.16181082259211
1.16181082205651
1.16181081959885
1.16181079742794
1.16181079789421
1.16181079801684
1.16181079805785
1.16181079806955
1.16181079807095
1.16181079806871
1.16181079806507
1.16181079806069
1.16181079805581
1.16181079805052
1.16181079804487
1.1618107980389
1.16181079803265
1.16181079802616
1.16181079801947
1.16181079801262
1.16181079800564
1.16181079799858
1.16181079799148
1.16181079798435
1.16181079797725
1.16181079797019
1.16181079796321
1.16181079795633
1.16181079794958
1.16181079794297
1.16181079793654
1.16181079793029
1.16181079792425
1.16181079791843
1.16181079791284
1.16181079790749
1.1618107979024
1.16181079789757
1.16181079789301
1.16181079788872
1.16181079788471
1.16181079788099
1.16181079787754
1.16181079787438
1.16181079787149
1.16181079786882
1.16181079786622
1.16181079786318
1.16181079785795
1.16181079784466
1.16181079780388
1.16181079767467
1.16181079706933
1.16181077178249
1.16181077189209
1.16181077192066
1.161810771929
1.16181077192989
1.16181077192789
1.16181077192464
1.16181077192072
1.16181077191629
1.16181077191144
1.1618107719062
1.16181077190061
1.16181077189471
1.16181077188853
1.16181077188213
1.16181077187552
1.16181077186876
1.16181077186187
1.16181077185491
1.1618107718479
1.16181077184087
1.16181077183386
1.1618107718269
1.16181077182001
1.16181077181323
1.16181077180657
1.16181077180006
1.16181077179371
1.16181077178756
1.1618107717816
1.16181077177587
1.16181077177036
1.1618107717651
1.16181077176009
1.16181077175533
1.16181077175085
1.16181077174664
1.1618107717427
1.16181077173905
1.16181077173567
1.16181077173258
1.16181077172977
1.16181077172724
1.16181077172496
1.16181077172283
1.16181077172043
1.16181077171642
1.16181077170627
1.1618107716752
1.16181077153028
1.16181074549625
1.16181074552096
1.16181074552719
1.16181074552794
1.16181074552633
1.16181074552356
1.16181074552011
1.16181074551615
1.16181074551175
1.16181074550694
1.16181074550175
1.16181074549623
1.1618107454904
1.16181074548431
1.16181074547798
1.16181074547146
1.16181074546479
1.16181074545801
1.16181074545114
1.16181074544422
1.16181074543729
1.16181074543038
1.16181074542352
1.16181074541673
1.16181074541004
1.16181074540348
1.16181074539707
1.16181074539082
1.16181074538476
1.16181074537889
1.16181074537325
1.16181074536783
1.16181074536265
1.16181074535772
1.16181074535305
1.16181074534864
1.16181074534451
1.16181074534065
1.16181074533707
1.16181074533376
1.16181074533074
1.161810745328
1.16181074532554
1.16181074532337
1.16181074532148
1.16181074531975
1.16181074531787
1.16181074531474
1.1618107453068
1.16181074527294
1.16181071906221
1.16181071906725
1.16181071906829
1.16181071906732
1.16181071906516
1.16181071906224
1.16181071905877
1.16181071905484
1.16181071905048
1.16181071904572
1.1618107190406
1.16181071903514
1.16181071902939
1.16181071902338
1.16181071901714
1.16181071901071
1.16181071900414
1.16181071899744
1.16181071899067
1.16181071898386
1.16181071897703
1.16181071897022
1.16181071896346
1.16181071895678
1.16181071895019
1.16181071894373
1.16181071893741
1.16181071893126
1.16181071892529
1.16181071891952
1.16181071891397
1.16181071890864
1.16181071890355
1.16181071889871
1.16181071889412
1.1618107188898
1.16181071888574
1.16181071888196
1.16181071887845
1.16181071887521
1.16181071887226
1.16181071886958
1.16181071886719
1.16181071886508
1.16181071886327
1.16181071886172
1.16181071886034
1.16181071885879
1.1618107188562
1.16181071884842
1.16181069259473
1.16181069259532
1.16181069259517
1.16181069259383
1.16181069259156
1.16181069258863
1.16181069258519
1.1618106925813
1.16181069257698
1.16181069257228
1.16181069256722
1.16181069256184
1.16181069255616
1.16181069255023
1.16181069254408
1.16181069253775
1.16181069253127
1.16181069252468
1.16181069251801
1.1618106925113
1.16181069250457
1.16181069249787
1.16181069249121
1.16181069248463
1.16181069247815
1.16181069247179
1.16181069246557
1.16181069245952
1.16181069245365
1.16181069244798
1.16181069244252
1.16181069243728
1.16181069243228
1.16181069242753
1.16181069242303
1.16181069241878
1.16181069241481
1.1618106924111
1.16181069240767
1.16181069240451
1.16181069240162
1.16181069239901
1.16181069239668
1.16181069239463
1.16181069239287
1.16181069239139
1.16181069239014
1.16181069238896
1.1618106923876
1.16181069238581
1.16181066611973
1.16181066611932
1.1618106661189
1.16181066611749
1.16181066611521
1.1618106661123
1.16181066610889
1.16181066610504
1.16181066610078
1.16181066609614
1.16181066609114
1.16181066608583
1.16181066608024
1.16181066607439
1.16181066606833
1.16181066606209
1.16181066605571
1.16181066604922
1.16181066604266
1.16181066603605
1.16181066602943
1.16181066602284
1.16181066601629
1.16181066600981
1.16181066600343
1.16181066599718
1.16181066599106
1.16181066598511
1.16181066597934
1.16181066597377
1.1618106659684
1.16181066596326
1.16181066595835
1.16181066595369
1.16181066594927
1.16181066594512
1.16181066594122
1.1618106659376
1.16181066593424
1.16181066593115
1.16181066592834
1.16181066592579
1.16181066592352
1.16181066592153
1.16181066591982
1.16181066591838
1.16181066591719
1.16181066591612
1.16181066591505
1.16181066591462
1.16181063964297
1.16181063964234
1.16181063964185
1.16181063964042
1.16181063963816
1.16181063963528
1.16181063963191
1.1618106396281
1.16181063962389
1.16181063961931
1.16181063961438
1.16181063960914
1.16181063960363
1.16181063959787
1.16181063959191
1.16181063958577
1.16181063957949
1.1618106395731
1.16181063956664
1.16181063956014
1.16181063955363
1.16181063954714
1.1618106395407
1.16181063953433
1.16181063952806
1.16181063952191
1.1618106395159
1.16181063951005
1.16181063950438
1.16181063949891
1.16181063949364
1.16181063948859
1.16181063948378
1.1618106394792
1.16181063947488
1.16181063947081
1.161810639467
1.16181063946345
1.16181063946017
1.16181063945716
1.16181063945442
1.16181063945194
1.16181063944973
1.1618106394478
1.16181063944614
1.16181063944475
1.1618106394436
1.16181063944257
1.1618106394416
1.16181063944149
1.16181061316574
1.16181061316505
1.16181061316454
1.16181061316312
1.16181061316087
1.16181061315802
1.16181061315468
1.16181061315092
1.16181061314676
1.16181061314224
1.16181061313738
1.16181061313222
1.16181061312679
1.16181061312113
1.16181061311525
1.16181061310921
1.16181061310303
1.16181061309675
1.1618106130904
1.161810613084
1.1618106130776
1.16181061307122
1.16181061306489
1.16181061305863
1.16181061305246
1.16181061304642
1.16181061304052
1.16181061303478
1.16181061302921
1.16181061302383
1.16181061301867
1.16181061301372
1.161810613009
1.16181061300451
1.16181061300028
1.16181061299629
1.16181061299257
1.1618106129891
1.1618106129859
1.16181061298296
1.16181061298029
1.16181061297789
1.16181061297574
1.16181061297387
1.16181061297226
1.16181061297092
1.16181061296981
1.16181061296882
1.16181061296791
1.16181061296788
1.16181058668835
1.16181058668765
1.16181058668711
1.1618105866857
1.16181058668347
1.16181058668064
1.16181058667735
1.16181058667363
1.16181058666953
1.16181058666507
1.16181058666028
1.1618105866552
1.16181058664985
1.16181058664427
1.16181058663849
1.16181058663255
1.16181058662647
1.1618105866203
1.16181058661405
1.16181058660777
1.16181058660147
1.1618105865952
1.16181058658898
1.16181058658283
1.16181058657677
1.16181058657084
1.16181058656504
1.1618105865594
1.16181058655394
1.16181058654867
1.1618105865436
1.16181058653875
1.16181058653412
1.16181058652973
1.16181058652558
1.16181058652169
1.16181058651805
1.16181058651466
1.16181058651154
1.16181058650868
1.16181058650608
1.16181058650375
1.16181058650167
1.16181058649986
1.16181058649831
1.16181058649701
1.16181058649595
1.161810586495
1.16181058649412
1.16181058649413
1.1618105602109
1.16181056021018
1.16181056020963
1.16181056020823
1.16181056020601
1.16181056020321
1.16181056019996
1.16181056019629
1.16181056019224
1.16181056018784
1.16181056018312
1.16181056017812
1.16181056017286
1.16181056016737
1.16181056016169
1.16181056015584
1.16181056014987
1.1618105601438
1.16181056013766
1.16181056013148
1.1618105601253
1.16181056011914
1.16181056011302
1.16181056010698
1.16181056010104
1.16181056009521
1.16181056008952
1.16181056008399
1.16181056007863
1.16181056007346
1.16181056006849
1.16181056006374
1.1618105600592
1.16181056005491
1.16181056005085
1.16181056004704
1.16181056004349
1.16181056004018
1.16181056003714
1.16181056003436
1.16181056003183
1.16181056002957
1.16181056002756
1.16181056002581
1.16181056002431
1.16181056002307
1.16181056002206
1.16181056002114
1.16181056002031
1.16181056002034
1.16181053373345
1.16181053373271
1.16181053373215
1.16181053373075
1.16181053372855
1.16181053372578
1.16181053372256
1.16181053371894
1.16181053371494
1.16181053371061
1.16181053370596
1.16181053370103
1.16181053369586
1.16181053369046
1.16181053368487
1.16181053367913
1.16181053367326
1.16181053366729
1.16181053366126
1.16181053365519
1.16181053364912
1.16181053364307
1.16181053363707
1.16181053363114
1.1618105336253
1.16181053361958
1.161810533614
1.16181053360857
1.16181053360332
1.16181053359825
1.16181053359338
1.16181053358872
1.16181053358428
1.16181053358008
1.16181053357611
1.16181053357239
1.16181053356892
1.1618105335657
1.16181053356274
1.16181053356003
1.16181053355758
1.16181053355539
1.16181053355344
1.16181053355175
1.16181053355032
1.16181053354913
1.16181053354816
1.16181053354729
1.16181053354649
1.16181053354655
1.16181050725602
1.16181050725527
1.1618105072547
1.16181050725331
1.16181050725113
1.16181050724838
1.1618105072452
1.16181050724162
1.16181050723768
1.16181050723341
1.16181050722884
1.16181050722399
1.1618105072189
1.16181050721359
1.1618105072081
1.16181050720245
1.16181050719669
1.16181050719082
1.1618105071849
1.16181050717894
1.16181050717298
1.16181050716704
1.16181050716114
1.16181050715532
1.16181050714959
1.16181050714398
1.1618105071385
1.16181050713318
1.16181050712803
1.16181050712306
1.16181050711829
1.16181050711373
1.16181050710939
1.16181050710528
1.1618105071014
1.16181050709777
1.16181050709438
1.16181050709124
1.16181050708836
1.16181050708573
1.16181050708335
1.16181050708123
1.16181050707935
1.16181050707773
1.16181050707635
1.16181050707521
1.1618105070743
1.16181050707346
1.1618105070727
1.16181050707279
1.16181048077867
1.16181048077791
1.16181048077733
1.16181048077594
1.16181048077378
1.16181048077106
1.16181048076792
1.16181048076439
1.1618104807605
1.16181048075629
1.16181048075179
1.16181048074702
1.16181048074201
1.1618104807368
1.1618104807314
1.16181048072585
1.16181048072019
1.16181048071443
1.16181048070861
1.16181048070276
1.16181048069691
1.16181048069107
1.16181048068529
1.16181048067957
1.16181048067395
1.16181048066845
1.16181048066308
1.16181048065786
1.16181048065281
1.16181048064794
1.16181048064327
1.16181048063881
1.16181048063456
1.16181048063054
1.16181048062675
1.16181048062321
1.1618104806199
1.16181048061685
1.16181048061404
1.16181048061149
1.16181048060918
1.16181048060713
1.16181048060532
1.16181048060376
1.16181048060244
1.16181048060135
1.16181048060049
1.16181048059969
1.16181048059897
1.16181048059908
1.16181045430144
1.16181045430067
1.16181045430007
1.16181045429869
1.16181045429655
1.16181045429386
1.16181045429076
1.16181045428727
1.16181045428344
1.16181045427929
1.16181045427486
1.16181045427017
1.16181045426525
1.16181045426012
1.16181045425482
1.16181045424937
1.1618104542438
1.16181045423815
1.16181045423243
1.16181045422669
1.16181045422094
1.16181045421522
1.16181045420954
1.16181045420393
1.16181045419842
1.16181045419302
1.16181045418775
1.16181045418264
1.16181045417769
1.16181045417292
1.16181045416835
1.16181045416398
1.16181045415983
1.1618104541559
1.1618104541522
1.16181045414873
1.16181045414551
1.16181045414254
1.16181045413981
1.16181045413733
1.1618104541351
1.16181045413311
1.16181045413137
1.16181045412987
1.16181045412861
1.16181045412758
1.16181045412676
1.16181045412601
1.16181045412532
1.16181045412546
1.16181042782436
1.16181042782357
1.16181042782297
1.1618104278216
1.16181042781948
1.16181042781682
1.16181042781375
1.16181042781031
1.16181042780654
1.16181042780245
1.16181042779809
1.16181042779348
1.16181042778864
1.1618104277836
1.16181042777839
1.16181042777303
1.16181042776757
1.16181042776201
1.1618104277564
1.16181042775077
1.16181042774512
1.1618104277395
1.16181042773393
1.16181042772843
1.16181042772302
1.16181042771773
1.16181042771256
1.16181042770755
1.1618104277027
1.16181042769803
1.16181042769355
1.16181042768928
1.16181042768522
1.16181042768138
1.16181042767776
1.16181042767438
1.16181042767124
1.16181042766835
1.1618104276657
1.16181042766329
1.16181042766113
1.16181042765921
1.16181042765754
1.1618104276561
1.1618104276549
1.16181042765392
1.16181042765315
1.16181042765243
1.16181042765178
1.16181042765194
1.16181040134747
1.16181040134668
1.16181040134607
1.16181040134471
1.1618104013426
1.16181040133997
1.16181040133695
1.16181040133356
1.16181040132983
1.16181040132581
1.16181040132152
1.16181040131698
1.16181040131222
1.16181040130727
1.16181040130215
1.16181040129689
1.16181040129152
1.16181040128607
1.16181040128056
1.16181040127502
1.16181040126948
1.16181040126397
1.1618104012585
1.1618104012531
1.1618104012478
1.1618104012426
1.16181040123754
1.16181040123263
1.16181040122787
1.1618104012233
1.16181040121892
1.16181040121474
1.16181040121076
1.16181040120701
1.16181040120348
1.16181040120019
1.16181040119713
1.16181040119431
1.16181040119173
1.16181040118939
1.1618104011873
1.16181040118546
1.16181040118385
1.16181040118247
1.16181040118132
1.16181040118039
1.16181040117967
1.16181040117898
1.16181040117837
1.16181040117855
1.16181037487081
1.16181037487001
1.16181037486939
1.16181037486805
1.16181037486596
1.16181037486337
1.16181037486039
1.16181037485704
1.16181037485337
1.16181037484941
1.16181037484518
1.16181037484072
1.16181037483604
1.16181037483117
1.16181037482614
1.16181037482097
1.1618103748157
1.16181037481034
1.16181037480494
1.1618103747995
1.16181037479406
1.16181037478865
1.16181037478328
1.16181037477798
1.16181037477278
1.16181037476768
1.16181037476272
1.1618103747579
1.16181037475325
1.16181037474877
1.16181037474448
1.16181037474038
1.1618103747365
1.16181037473283
1.16181037472939
1.16181037472617
1.16181037472319
1.16181037472044
1.16181037471794
1.16181037471568
1.16181037471365
1.16181037471187
1.16181037471032
1.16181037470901
1.16181037470791
1.16181037470703
1.16181037470635
1.1618103747057
1.16181037470512
1.16181037470531
1.16181034839441
1.16181034839362
1.16181034839299
1.16181034839167
1.1618103483896
1.16181034838703
1.1618103483841
1.1618103483808
1.16181034837718
1.16181034837328
1.16181034836912
1.16181034836473
1.16181034836013
1.16181034835534
1.1618103483504
1.16181034834532
1.16181034834014
1.16181034833488
1.16181034832957
1.16181034832423
1.16181034831889
1.16181034831357
1.1618103483083
1.16181034830311
1.161810348298
1.161810348293
1.16181034828813
1.16181034828341
1.16181034827885
1.16181034827446
1.16181034827026
1.16181034826625
1.16181034826245
1.16181034825887
1.1618103482555
1.16181034825237
1.16181034824946
1.16181034824679
1.16181034824435
1.16181034824216
1.1618103482402
1.16181034823848
1.161810348237
1.16181034823574
1.16181034823469
1.16181034823386
1.16181034823322
1.1618103482326
1.16181034823205
1.16181034823226
1.16181032191833
1.16181032191753
1.1618103219169
1.1618103219156
1.16181032191355
1.16181032191102
1.16181032190812
1.16181032190487
1.1618103219013
1.16181032189746
1.16181032189337
1.16181032188905
1.16181032188452
1.16181032187981
1.16181032187495
1.16181032186997
1.16181032186487
1.16181032185971
1.16181032185449
1.16181032184924
1.161810321844
1.16181032183878
1.16181032183361
1.1618103218285
1.16181032182349
1.16181032181859
1.16181032181381
1.16181032180918
1.16181032180471
1.16181032180041
1.16181032179629
1.16181032179237
1.16181032178866
1.16181032178515
1.16181032178186
1.1618103217788
1.16181032177597
1.16181032177337
1.161810321771
1.16181032176887
1.16181032176698
1.16181032176532
1.1618103217639
1.16181032176269
1.16181032176169
1.1618103217609
1.16181032176031
1.16181032175971
1.16181032175919
1.1618103217594
1.16181029544258
1.16181029544178
1.16181029544115
1.16181029543987
1.16181029543784
1.16181029543535
1.16181029543249
1.16181029542929
1.16181029542578
1.16181029542199
1.16181029541796
1.16181029541371
1.16181029540925
1.16181029540463
1.16181029539985
1.16181029539494
1.16181029538994
1.16181029538486
1.16181029537973
1.16181029537458
1.16181029536942
1.1618102953643
1.16181029535922
1.16181029535421
1.16181029534928
1.16181029534447
1.16181029533979
1.16181029533524
1.16181029533086
1.16181029532664
1.16181029532261
1.16181029531877
1.16181029531513
1.16181029531171
1.16181029530849
1.1618102953055
1.16181029530274