/*--------------------------------*- C++ -*----------------------------------*\
  =========                 |
  \\      /  F ield         | OpenFOAM: The Open Source CFD Toolbox
   \\    /   O peration     | Website:  https://openfoam.org
    \\  /    A nd           | Version:  10
     \\/     M anipulation  |
\*---------------------------------------------------------------------------*/
FoamFile
{
    format      ascii;
    class       volScalarField;
    location    "2.6";
    object      T;
}
// * * * * * * * * * * * * * * * * * * * * * * * * * * * * * * * * * * * * * //

dimensions      [0 0 0 1 0 0 0];

internalField   nonuniform List<scalar> 
2500
(
305.217878533554
305.174547010515
305.148113809394
305.138705151971
305.135733966842
305.134821929107
305.134551885115
305.134474695495
305.134452478063
305.134446322815
305.134443112828
305.134441422542
305.134440474984
305.134439319772
305.134438244593
305.134437057535
305.134436437229
305.134435672203
305.134434803219
305.134434182008
305.134433580582
305.134432951165
305.134432392055
305.134432184178
305.134431957634
305.134431609136
305.134431517904
305.134431418045
305.134431297389
305.134431411182
305.134431546853
305.134431673885
305.134432023267
305.134432505213
305.134432952346
305.134433403206
305.134433914097
305.134434362387
305.134435336621
305.134436548795
305.134439122614
305.13444667297
305.134472121431
305.134559247956
305.134851560359
305.135788755497
305.138758951525
305.148141037169
305.174956802339
305.217777156572
303.194444390019
303.084818478189
303.010987430359
302.98104739194
302.970085062446
302.966271049018
302.96502554882
302.964648341728
302.96454226111
302.964514515733
302.964507028831
302.964504923046
302.964504350314
302.964503879535
302.964503460018
302.964503024509
302.964502779579
302.964502482867
302.964502132481
302.964501845287
302.964501476359
302.964500987945
302.964500514618
302.964500406206
302.964500347987
302.964500107591
302.964500084194
302.964500080478
302.964499958828
302.964500112918
302.964500171968
302.964500036024
302.964500453015
302.964501059441
302.964501331219
302.964501492104
302.964501681431
302.96450191691
302.96450274026
302.964505232222
302.964514648162
302.964549803149
302.964674663041
302.965092706618
302.966403516075
302.970262293199
302.981133427811
303.010941869714
303.086179939232
303.196013279321
301.66899313974
301.555214824172
301.479532067925
301.448298969552
301.436814547168
301.432800278406
301.431477892208
301.43107291122
301.430958020668
301.430927810206
301.430919947599
301.430917986668
301.430917838161
301.43091775453
301.430917689512
301.430917670128
301.430917662654
301.430917642557
301.430917553666
301.430917472658
301.430917310611
301.430917042329
301.430916737597
301.430916633333
301.430916645127
301.430916567397
301.430916574838
301.430916605184
301.430916567944
301.430916649428
301.430916649827
301.430916510963
301.430916805972
301.430917280028
301.43091732753
301.430917272388
301.430917305479
301.43091734246
301.430917962799
301.430920325836
301.43092989953
301.430966571999
301.431097221501
301.43153452577
301.432903942122
301.436938518192
301.448335133142
301.479579738128
301.557071880943
301.674120547996
300.76281292894
300.682681865721
300.63575817207
300.616742375907
300.610048552041
300.607795679443
300.60706947181
300.60684875931
300.606786118782
300.606769606992
300.606765280216
300.606764302509
300.606764371187
300.606764399063
300.606764431535
300.606764463499
300.60676448477
300.606764498005
300.606764487102
300.606764493936
300.606764472723
300.606764362137
300.60676419823
300.606764131019
300.606764168044
300.606764161659
300.606764158844
300.606764199606
300.606764226538
300.606764250635
300.606764237365
300.606764148241
300.606764294219
300.60676455331
300.606764542216
300.606764499994
300.606764491667
300.606764431795
300.606764668627
300.606765732435
300.606770473198
300.606789235186
300.606857054516
300.607087872346
300.607827333296
300.610080415401
300.61674605845
300.635909102241
300.684249013358
300.768698363494
300.311682772817
300.267340774423
300.244617410141
300.235513525341
300.232406194554
300.231390814962
300.231068811644
300.230971208234
300.230943351645
300.230935956374
300.230933995512
300.230933581142
300.230933659449
300.230933704872
300.230933739915
300.23093376599
300.230933792092
300.230933813006
300.230933818587
300.230933822878
300.230933826373
300.230933799594
300.230933725958
300.230933697971
300.230933724227
300.230933729897
300.2309337329
300.230933759296
300.230933778859
300.230933786975
300.230933779309
300.230933736422
300.23093379799
300.230933900671
300.230933894306
300.230933878623
300.230933865204
300.230933835734
300.230933870283
300.230934242731
300.23093620281
300.230944093632
300.230972853376
300.231071644974
300.231393219386
300.232399677826
300.235491060787
300.244704074865
300.268291590446
300.316080184518
300.11589379958
300.09521918185
300.085893791515
300.082179526401
300.080935896911
300.080538187662
300.080413617539
300.080375872726
300.080365019977
300.080362113255
300.080361334985
300.080361179584
300.080361224864
300.080361254543
300.080361275624
300.080361290157
300.080361306011
300.080361319028
300.080361325187
300.080361326363
300.080361332147
300.080361324365
300.08036129957
300.080361295952
300.080361304159
300.080361307642
300.080361312049
300.080361324506
300.080361334387
300.080361338055
300.080361334711
300.080361317577
300.080361339994
300.080361373653
300.080361371131
300.080361364824
300.080361354367
300.080361338029
300.080361335807
300.080361455885
300.080362170999
300.080365114874
300.080375879328
300.080412975734
300.080534913119
300.080924311229
300.082154963357
300.085918022447
300.09567760859
300.118431889961
300.039780366688
300.031318110089
300.027920532176
300.026572393435
300.02612567849
300.025984923612
300.025941255167
300.025928019134
300.025924184935
300.025923146119
300.02592286918
300.025922819781
300.0259228385
300.025922852753
300.025922862897
300.025922869988
300.025922877215
300.025922882843
300.02592288624
300.025922886741
300.025922890086
300.025922887713
300.025922881218
300.025922882964
300.025922885534
300.02592288711
300.025922889085
300.025922893457
300.025922897379
300.025922899253
300.025922898017
300.025922891953
300.025922899131
300.025922908635
300.025922907377
300.025922904751
300.025922899144
300.025922891075
300.025922886141
300.025922921763
300.025923163132
300.025924172393
300.025927860261
300.025940554273
300.025982477963
300.026118272746
300.02655640997
300.027920487976
300.031504210185
300.04100436882
300.012750474737
300.009626899717
300.008494484112
300.008047272305
300.007899731486
300.00785367533
300.007839491356
300.007835191429
300.007833937703
300.00783359409
300.007833504375
300.007833490497
300.007833496734
300.007833502488
300.007833506792
300.007833509803
300.007833512508
300.007833514561
300.007833516027
300.007833516291
300.007833517714
300.007833517148
300.007833515814
300.007833517263
300.007833518186
300.007833518786
300.007833519412
300.007833520662
300.00783352203
300.007833522901
300.007833522524
300.007833520582
300.007833522606
300.007833524886
300.007833524222
300.007833523157
300.007833520743
300.007833517304
300.007833514499
300.007833524483
300.007833601426
300.007833925474
300.007835105742
300.007839151619
300.007852524763
300.007896239374
300.008039301823
300.00849037802
300.009692766355
300.013266162999
300.003851814621
300.002792208179
300.002439798417
300.002301688866
300.0022561525
300.002242008482
300.002237676623
300.002236363915
300.002235979239
300.002235872874
300.002235845765
300.002235842111
300.002235844108
300.002235846182
300.002235847811
300.002235848936
300.002235849849
300.002235850538
300.00223585111
300.002235851291
300.002235851665
300.002235851658
300.002235851617
300.002235852142
300.002235852449
300.002235852659
300.00223585286
300.002235853184
300.002235853601
300.002235853937
300.002235853817
300.002235853239
300.002235853756
300.002235854191
300.002235853878
300.002235853469
300.002235852573
300.002235851295
300.002235850136
300.002235852859
300.002235876232
300.002235974752
300.002236332097
300.002237549929
300.002241567203
300.002254764172
300.002298343193
300.002437001618
300.002812964657
300.004047125465
300.001105034245
300.000770066416
300.000666208033
300.000625968612
300.000612682789
300.000608562644
300.000607305737
300.000606925231
300.000606813352
300.000606782243
300.000606774488
300.000606773571
300.000606774192
300.000606774877
300.000606775434
300.000606775814
300.000606776105
300.000606776346
300.00060677656
300.000606776631
300.000606776703
300.000606776753
300.000606776829
300.000606776998
300.00060677709
300.000606777157
300.000606777226
300.000606777309
300.000606777421
300.00060677753
300.00060677749
300.000606777326
300.000606777442
300.000606777494
300.000606777365
300.000606777219
300.000606776921
300.000606776498
300.000606776099
300.000606776836
300.00060678363
300.000606812202
300.000606915406
300.000607264816
300.00060841289
300.000612190408
300.000624725722
300.000664883976
300.000775956417
300.001172856194
300.000302948309
300.000203218889
300.000173947961
300.00016277678
300.000159080657
300.000157933345
300.000157584198
300.000157478655
300.000157447568
300.000157438898
300.000157436777
300.000157436554
300.000157436739
300.000157436949
300.000157437123
300.000157437241
300.000157437329
300.000157437405
300.000157437476
300.000157437513
300.000157437536
300.000157437557
300.000157437587
300.000157437634
300.000157437659
300.000157437679
300.000157437703
300.000157437725
300.000157437751
300.000157437781
300.000157437769
300.000157437724
300.000157437744
300.00015743774
300.000157437694
300.000157437646
300.000157437555
300.000157437427
300.000157437307
300.000157437506
300.000157439403
300.000157447349
300.000157475943
300.000157572105
300.000157886467
300.000158919829
300.000162355132
300.000173422019
300.000204727832
300.000324854103
300.000079781314
300.000051584742
300.000043642232
300.000040664968
300.000039677999
300.000039370792
300.000039277403
300.00003924922
300.000039240915
300.000039238595
300.000039238035
300.000039237981
300.000039238033
300.000039238092
300.000039238142
300.000039238176
300.000039238201
300.000039238223
300.000039238244
300.000039238259
300.000039238267
300.000039238274
300.000039238282
300.000039238293
300.000039238299
300.000039238305
300.000039238313
300.000039238319
300.000039238324
300.000039238331
300.000039238328
300.000039238316
300.000039238316
300.000039238314
300.0000392383
300.000039238284
300.000039238258
300.000039238223
300.000039238191
300.000039238245
300.000039238756
300.000039240884
300.000039248516
300.000039274015
300.000039356904
300.000039628617
300.000040531555
300.000043455025
300.000051930764
300.000086434251
300.000020271027
300.000012650441
300.000010565769
300.000009799647
300.000009545367
300.000009465909
300.000009441749
300.000009434469
300.000009432324
300.000009431724
300.000009431579
300.000009431564
300.000009431577
300.000009431592
300.000009431605
300.000009431613
300.000009431619
300.000009431624
300.00000943163
300.000009431634
300.000009431637
300.000009431638
300.00000943164
300.000009431642
300.000009431643
300.000009431645
300.000009431647
300.000009431649
300.00000943165
300.000009431651
300.000009431651
300.000009431647
300.000009431647
300.000009431646
300.000009431642
300.000009431638
300.000009431632
300.000009431623
300.000009431616
300.000009431632
300.000009431766
300.000009432317
300.000009434286
300.000009440823
300.000009461947
300.000009530916
300.000009759697
300.000010504132
300.000012719355
300.000022187097
300.000004988023
300.00000300866
300.000002477585
300.000002286375
300.000002222899
300.000002202974
300.000002196907
300.000002195079
300.00000219454
300.000002194388
300.00000219435
300.000002194344
300.000002194346
300.000002194349
300.000002194351
300.000002194352
300.000002194353
300.000002194353
300.000002194354
300.000002194355
300.000002194355
300.000002194355
300.000002194355
300.000002194356
300.000002194355
300.000002194356
300.000002194356
300.000002194356
300.000002194357
300.000002194357
300.000002194357
300.000002194356
300.000002194356
300.000002194356
300.000002194355
300.000002194355
300.000002194354
300.000002194353
300.000002194352
300.000002194358
300.000002194393
300.000002194533
300.000002195026
300.000002196652
300.000002201871
300.000002218828
300.000002274935
300.000002458479
300.000003019496
300.000005514869
300.000001192785
300.000000696523
300.000000564829
300.000000518354
300.000000502943
300.000000498083
300.000000496598
300.000000496149
300.000000496016
300.000000495977
300.000000495965
300.000000495962
300.000000495961
300.00000049596
300.00000049596
300.000000495959
300.000000495958
300.000000495957
300.000000495957
300.000000495956
300.000000495956
300.000000495955
300.000000495955
300.000000495954
300.000000495954
300.000000495954
300.000000495954
300.000000495954
300.000000495954
300.000000495954
300.000000495954
300.000000495954
300.000000495954
300.000000495955
300.000000495955
300.000000495956
300.000000495956
300.000000495957
300.000000495958
300.000000495961
300.000000495971
300.000000496007
300.000000496129
300.000000496523
300.000000497777
300.000000501829
300.000000515197
300.000000559191
300.00000069731
300.000001331844
300.000000278313
300.00000015779
300.000000125884
300.000000114824
300.000000111167
300.000000110009
300.000000109652
300.000000109543
300.000000109509
300.000000109497
300.000000109492
300.00000010949
300.000000109488
300.000000109486
300.000000109485
300.000000109483
300.000000109482
300.000000109481
300.00000010948
300.000000109479
300.000000109479
300.000000109478
300.000000109477
300.000000109477
300.000000109476
300.000000109476
300.000000109476
300.000000109476
300.000000109476
300.000000109476
300.000000109476
300.000000109476
300.000000109477
300.000000109477
300.000000109478
300.000000109479
300.00000010948
300.000000109481
300.000000109482
300.000000109485
300.000000109489
300.000000109499
300.00000010953
300.000000109625
300.00000010992
300.000000110866
300.000000113976
300.000000124287
300.000000157471
300.0000003137
300.000000063888
300.00000003547
300.00000002785
300.000000025237
300.00000002438
300.000000024108
300.000000024022
300.000000023994
300.000000023983
300.000000023978
300.000000023975
300.000000023973
300.000000023971
300.000000023969
300.000000023967
300.000000023966
300.000000023964
300.000000023963
300.000000023962
300.000000023961
300.00000002396
300.000000023959
300.000000023959
300.000000023958
300.000000023958
300.000000023958
300.000000023957
300.000000023957
300.000000023957
300.000000023957
300.000000023957
300.000000023958
300.000000023958
300.000000023959
300.00000002396
300.00000002396
300.000000023962
300.000000023963
300.000000023964
300.000000023966
300.000000023969
300.000000023973
300.000000023983
300.000000024007
300.000000024077
300.000000024295
300.000000025011
300.00000002741
300.000000035259
300.000000072596
300.000000014837
300.000000008339
300.000000006487
300.000000005843
300.000000005637
300.000000005571
300.000000005549
300.00000000554
300.000000005535
300.000000005532
300.000000005529
300.000000005527
300.000000005524
300.000000005523
300.000000005521
300.000000005519
300.000000005518
300.000000005517
300.000000005515
300.000000005514
300.000000005514
300.000000005513
300.000000005512
300.000000005512
300.000000005511
300.000000005511
300.000000005511
300.00000000551
300.00000000551
300.00000000551
300.000000005511
300.000000005511
300.000000005511
300.000000005512
300.000000005513
300.000000005514
300.000000005515
300.000000005516
300.000000005518
300.00000000552
300.000000005522
300.000000005525
300.000000005529
300.000000005537
300.000000005555
300.000000005607
300.000000005779
300.000000006365
300.000000008249
300.000000016909
300.000000003865
300.000000002448
300.000000001934
300.00000000174
300.000000001682
300.000000001664
300.000000001656
300.000000001652
300.000000001648
300.000000001645
300.000000001643
300.00000000164
300.000000001638
300.000000001636
300.000000001634
300.000000001633
300.000000001631
300.00000000163
300.000000001629
300.000000001628
300.000000001627
300.000000001626
300.000000001625
300.000000001625
300.000000001624
300.000000001624
300.000000001624
300.000000001624
300.000000001623
300.000000001624
300.000000001624
300.000000001624
300.000000001625
300.000000001625
300.000000001626
300.000000001627
300.000000001628
300.00000000163
300.000000001631
300.000000001633
300.000000001635
300.000000001638
300.000000001641
300.000000001645
300.000000001651
300.000000001666
300.000000001716
300.000000001897
300.000000002409
300.000000004336
300.000000001461
300.000000001192
300.000000000984
300.00000000089
300.000000000865
300.000000000858
300.000000000854
300.00000000085
300.000000000847
300.000000000844
300.000000000842
300.000000000839
300.000000000837
300.000000000835
300.000000000833
300.000000000831
300.00000000083
300.000000000829
300.000000000827
300.000000000826
300.000000000825
300.000000000825
300.000000000824
300.000000000823
300.000000000823
300.000000000823
300.000000000822
300.000000000822
300.000000000822
300.000000000822
300.000000000822
300.000000000823
300.000000000823
300.000000000824
300.000000000825
300.000000000826
300.000000000827
300.000000000828
300.00000000083
300.000000000832
300.000000000834
300.000000000836
300.000000000839
300.000000000842
300.000000000846
300.000000000853
300.000000000876
300.000000000968
300.00000000117
300.000000001556
300.000000000944
300.000000000929
300.000000000789
300.000000000717
300.0000000007
300.000000000695
300.000000000692
300.000000000689
300.000000000686
300.000000000683
300.00000000068
300.000000000678
300.000000000675
300.000000000673
300.000000000672
300.00000000067
300.000000000668
300.000000000667
300.000000000666
300.000000000665
300.000000000664
300.000000000663
300.000000000662
300.000000000662
300.000000000661
300.000000000661
300.000000000661
300.000000000661
300.000000000661
300.000000000661
300.000000000661
300.000000000661
300.000000000662
300.000000000662
300.000000000663
300.000000000664
300.000000000665
300.000000000667
300.000000000668
300.00000000067
300.000000000672
300.000000000675
300.000000000677
300.00000000068
300.000000000683
300.000000000688
300.000000000706
300.000000000778
300.000000000912
300.000000000952
300.000000000834
300.000000000875
300.000000000749
300.000000000683
300.000000000667
300.000000000663
300.00000000066
300.000000000657
300.000000000654
300.000000000651
300.000000000648
300.000000000646
300.000000000644
300.000000000642
300.00000000064
300.000000000638
300.000000000637
300.000000000635
300.000000000634
300.000000000633
300.000000000632
300.000000000631
300.000000000631
300.00000000063
300.00000000063
300.000000000629
300.000000000629
300.000000000629
300.000000000629
300.000000000629
300.000000000629
300.000000000629
300.00000000063
300.000000000631
300.000000000632
300.000000000633
300.000000000634
300.000000000635
300.000000000637
300.000000000639
300.000000000641
300.000000000643
300.000000000646
300.000000000648
300.000000000651
300.000000000655
300.000000000672
300.00000000074
300.000000000859
300.000000000823
300.000000000811
300.000000000864
300.000000000741
300.000000000676
300.000000000661
300.000000000657
300.000000000654
300.000000000651
300.000000000648
300.000000000645
300.000000000643
300.00000000064
300.000000000638
300.000000000636
300.000000000634
300.000000000632
300.000000000631
300.00000000063
300.000000000628
300.000000000627
300.000000000626
300.000000000625
300.000000000625
300.000000000624
300.000000000624
300.000000000623
300.000000000623
300.000000000623
300.000000000623
300.000000000623
300.000000000623
300.000000000624
300.000000000624
300.000000000625
300.000000000626
300.000000000627
300.000000000628
300.000000000629
300.000000000631
300.000000000633
300.000000000635
300.000000000637
300.00000000064
300.000000000642
300.000000000645
300.000000000649
300.000000000665
300.000000000732
300.000000000848
300.000000000796
300.000000000806
300.000000000861
300.00000000074
300.000000000675
300.00000000066
300.000000000656
300.000000000653
300.00000000065
300.000000000647
300.000000000644
300.000000000642
300.000000000639
300.000000000637
300.000000000635
300.000000000633
300.000000000631
300.00000000063
300.000000000629
300.000000000627
300.000000000626
300.000000000625
300.000000000624
300.000000000624
300.000000000623
300.000000000623
300.000000000622
300.000000000622
300.000000000622
300.000000000622
300.000000000622
300.000000000622
300.000000000623
300.000000000623
300.000000000624
300.000000000625
300.000000000626
300.000000000627
300.000000000628
300.00000000063
300.000000000632
300.000000000634
300.000000000636
300.000000000639
300.000000000641
300.000000000644
300.000000000648
300.000000000664
300.00000000073
300.000000000846
300.00000000079
300.000000000805
300.000000000861
300.000000000739
300.000000000675
300.00000000066
300.000000000656
300.000000000653
300.00000000065
300.000000000647
300.000000000644
300.000000000642
300.000000000639
300.000000000637
300.000000000635
300.000000000633
300.000000000631
300.00000000063
300.000000000628
300.000000000627
300.000000000626
300.000000000625
300.000000000624
300.000000000624
300.000000000623
300.000000000623
300.000000000622
300.000000000622
300.000000000622
300.000000000622
300.000000000622
300.000000000622
300.000000000622
300.000000000623
300.000000000624
300.000000000625
300.000000000626
300.000000000627
300.000000000628
300.00000000063
300.000000000632
300.000000000634
300.000000000636
300.000000000638
300.000000000641
300.000000000644
300.000000000648
300.000000000664
300.00000000073
300.000000000845
300.000000000789
300.000000000805
300.00000000086
300.000000000739
300.000000000675
300.00000000066
300.000000000656
300.000000000653
300.00000000065
300.000000000647
300.000000000644
300.000000000641
300.000000000639
300.000000000637
300.000000000635
300.000000000633
300.000000000631
300.00000000063
300.000000000628
300.000000000627
300.000000000626
300.000000000625
300.000000000624
300.000000000624
300.000000000623
300.000000000622
300.000000000622
300.000000000622
300.000000000622
300.000000000622
300.000000000622
300.000000000622
300.000000000622
300.000000000623
300.000000000624
300.000000000624
300.000000000626
300.000000000627
300.000000000628
300.00000000063
300.000000000632
300.000000000634
300.000000000636
300.000000000638
300.000000000641
300.000000000644
300.000000000648
300.000000000664
300.00000000073
300.000000000845
300.000000000789
300.000000000805
300.00000000086
300.000000000739
300.000000000674
300.000000000659
300.000000000655
300.000000000652
300.000000000649
300.000000000647
300.000000000644
300.000000000641
300.000000000639
300.000000000637
300.000000000635
300.000000000633
300.000000000631
300.00000000063
300.000000000628
300.000000000627
300.000000000626
300.000000000625
300.000000000624
300.000000000623
300.000000000623
300.000000000622
300.000000000622
300.000000000622
300.000000000622
300.000000000622
300.000000000622
300.000000000622
300.000000000622
300.000000000623
300.000000000624
300.000000000624
300.000000000625
300.000000000627
300.000000000628
300.00000000063
300.000000000631
300.000000000634
300.000000000636
300.000000000638
300.000000000641
300.000000000643
300.000000000648
300.000000000664
300.00000000073
300.000000000845
300.000000000789
300.000000000805
300.000000000861
300.000000000739
300.000000000674
300.000000000659
300.000000000655
300.000000000652
300.000000000649
300.000000000646
300.000000000643
300.000000000641
300.000000000638
300.000000000636
300.000000000634
300.000000000632
300.000000000631
300.000000000629
300.000000000628
300.000000000627
300.000000000626
300.000000000625
300.000000000624
300.000000000623
300.000000000623
300.000000000622
300.000000000622
300.000000000621
300.000000000621
300.000000000621
300.000000000621
300.000000000622
300.000000000622
300.000000000623
300.000000000623
300.000000000624
300.000000000625
300.000000000626
300.000000000628
300.000000000629
300.000000000631
300.000000000633
300.000000000636
300.000000000638
300.000000000641
300.000000000643
300.000000000648
300.000000000664
300.00000000073
300.000000000845
300.000000000789
300.000000000805
300.000000000861
300.000000000739
300.000000000674
300.000000000659
300.000000000655
300.000000000652
300.000000000649
300.000000000646
300.000000000643
300.00000000064
300.000000000638
300.000000000636
300.000000000634
300.000000000632
300.00000000063
300.000000000629
300.000000000627
300.000000000626
300.000000000625
300.000000000624
300.000000000623
300.000000000623
300.000000000622
300.000000000622
300.000000000621
300.000000000621
300.000000000621
300.000000000621
300.000000000621
300.000000000621
300.000000000622
300.000000000622
300.000000000623
300.000000000624
300.000000000625
300.000000000626
300.000000000627
300.000000000629
300.000000000631
300.000000000633
300.000000000635
300.000000000638
300.00000000064
300.000000000643
300.000000000647
300.000000000664
300.00000000073
300.000000000846
300.00000000079
300.000000000806
300.000000000861
300.000000000739
300.000000000674
300.000000000659
300.000000000654
300.000000000651
300.000000000648
300.000000000645
300.000000000642
300.00000000064
300.000000000637
300.000000000635
300.000000000633
300.000000000631
300.00000000063
300.000000000628
300.000000000627
300.000000000626
300.000000000625
300.000000000624
300.000000000623
300.000000000622
300.000000000622
300.000000000621
300.000000000621
300.000000000621
300.00000000062
300.00000000062
300.000000000621
300.000000000621
300.000000000621
300.000000000622
300.000000000622
300.000000000623
300.000000000624
300.000000000625
300.000000000627
300.000000000628
300.00000000063
300.000000000632
300.000000000635
300.000000000637
300.00000000064
300.000000000643
300.000000000647
300.000000000664
300.000000000731
300.000000000847
300.00000000079
300.000000000806
300.000000000862
300.000000000739
300.000000000674
300.000000000658
300.000000000654
300.00000000065
300.000000000647
300.000000000644
300.000000000641
300.000000000639
300.000000000636
300.000000000634
300.000000000632
300.00000000063
300.000000000629
300.000000000627
300.000000000626
300.000000000625
300.000000000624
300.000000000623
300.000000000622
300.000000000622
300.000000000621
300.000000000621
300.00000000062
300.00000000062
300.00000000062
300.00000000062
300.00000000062
300.00000000062
300.000000000621
300.000000000621
300.000000000622
300.000000000623
300.000000000624
300.000000000625
300.000000000626
300.000000000628
300.00000000063
300.000000000632
300.000000000634
300.000000000637
300.00000000064
300.000000000643
300.000000000647
300.000000000664
300.000000000731
300.000000000847
300.000000000791
300.000000000807
300.000000000862
300.000000000739
300.000000000674
300.000000000658
300.000000000653
300.00000000065
300.000000000646
300.000000000643
300.00000000064
300.000000000638
300.000000000635
300.000000000633
300.000000000631
300.000000000629
300.000000000628
300.000000000626
300.000000000625
300.000000000624
300.000000000623
300.000000000622
300.000000000621
300.000000000621
300.00000000062
300.00000000062
300.000000000619
300.000000000619
300.000000000619
300.000000000619
300.000000000619
300.000000000619
300.00000000062
300.00000000062
300.000000000621
300.000000000622
300.000000000623
300.000000000624
300.000000000625
300.000000000627
300.000000000629
300.000000000631
300.000000000633
300.000000000636
300.000000000639
300.000000000642
300.000000000647
300.000000000664
300.000000000732
300.000000000848
300.000000000792
300.000000000808
300.000000000863
300.00000000074
300.000000000673
300.000000000657
300.000000000652
300.000000000649
300.000000000645
300.000000000642
300.000000000639
300.000000000636
300.000000000634
300.000000000632
300.00000000063
300.000000000628
300.000000000627
300.000000000625
300.000000000624
300.000000000623
300.000000000622
300.000000000621
300.000000000621
300.00000000062
300.000000000619
300.000000000619
300.000000000619
300.000000000618
300.000000000618
300.000000000618
300.000000000618
300.000000000619
300.000000000619
300.00000000062
300.00000000062
300.000000000621
300.000000000622
300.000000000623
300.000000000625
300.000000000626
300.000000000628
300.00000000063
300.000000000633
300.000000000635
300.000000000638
300.000000000642
300.000000000647
300.000000000664
300.000000000732
300.00000000085
300.000000000794
300.000000000809
300.000000000864
300.00000000074
300.000000000673
300.000000000657
300.000000000651
300.000000000648
300.000000000644
300.000000000641
300.000000000638
300.000000000635
300.000000000633
300.000000000631
300.000000000629
300.000000000627
300.000000000626
300.000000000624
300.000000000623
300.000000000622
300.000000000621
300.00000000062
300.000000000619
300.000000000619
300.000000000618
300.000000000618
300.000000000618
300.000000000617
300.000000000617
300.000000000617
300.000000000617
300.000000000618
300.000000000618
300.000000000619
300.000000000619
300.00000000062
300.000000000621
300.000000000622
300.000000000624
300.000000000625
300.000000000627
300.000000000629
300.000000000632
300.000000000634
300.000000000638
300.000000000641
300.000000000647
300.000000000664
300.000000000733
300.000000000851
300.000000000796
300.000000000811
300.000000000865
300.00000000074
300.000000000673
300.000000000656
300.00000000065
300.000000000646
300.000000000643
300.000000000639
300.000000000636
300.000000000634
300.000000000631
300.000000000629
300.000000000627
300.000000000626
300.000000000624
300.000000000623
300.000000000622
300.000000000621
300.00000000062
300.000000000619
300.000000000618
300.000000000618
300.000000000617
300.000000000617
300.000000000617
300.000000000616
300.000000000616
300.000000000616
300.000000000616
300.000000000617
300.000000000617
300.000000000618
300.000000000618
300.000000000619