/*--------------------------------*- C++ -*----------------------------------*\
  =========                 |
  \\      /  F ield         | OpenFOAM: The Open Source CFD Toolbox
   \\    /   O peration     | Website:  https://openfoam.org
    \\  /    A nd           | Version:  10
     \\/     M anipulation  |
\*---------------------------------------------------------------------------*/
FoamFile
{
    format      ascii;
    class       volVectorField;
    location    "2.6";
    object      U;
}
// * * * * * * * * * * * * * * * * * * * * * * * * * * * * * * * * * * * * * //

dimensions      [0 1 -1 0 0 0 0];

internalField   nonuniform List<vector> 
2500
(
(-1.74793639828771e-06 -1.54754094115112e-05 8.34932232076463e-25)
(-3.93060204437093e-06 -1.79730482137049e-05 1.03466062904882e-23)
(-2.61001464351612e-06 -1.84849360091772e-05 9.36801122255167e-25)
(-1.7039707742731e-06 -1.83682523070765e-05 1.19089316487716e-25)
(-1.11798176182283e-06 -1.8225822216034e-05 2.06900911594042e-24)
(-7.1418248220685e-07 -1.81309286666632e-05 8.61031072390425e-25)
(-4.67231397175981e-07 -1.80874323432508e-05 2.36353081772962e-25)
(-2.99454581500221e-07 -1.80692675462787e-05 3.45730067216463e-25)
(-1.72246015487625e-07 -1.8061667514548e-05 1.48347473421288e-24)
(-7.2631408624408e-08 -1.80585208033008e-05 8.27892881548685e-24)
(9.49613350278568e-09 -1.80569680154782e-05 9.47947210664715e-26)
(7.85809843356711e-08 -1.80560626704228e-05 1.28027995327894e-23)
(1.37403007029414e-07 -1.80554597619818e-05 1.17421897619693e-23)
(1.87771098383705e-07 -1.80550166504127e-05 7.36052073970719e-26)
(2.30939664068757e-07 -1.80546724376608e-05 1.06304703389772e-23)
(2.67866802107157e-07 -1.80544087794891e-05 7.32979163534855e-25)
(2.99313433275016e-07 -1.80542015246927e-05 9.43709564518922e-24)
(3.25908906975196e-07 -1.80540405550213e-05 1.15548358592365e-23)
(3.48186627499897e-07 -1.80539208249869e-05 1.40202716357673e-24)
(3.66609158197753e-07 -1.8053837358397e-05 1.1158326952023e-23)
(3.81607491031221e-07 -1.80537825444892e-05 1.15868171013348e-24)
(3.93565896456063e-07 -1.80537625519771e-05 1.26222163836007e-24)
(4.02850790817981e-07 -1.8053763015082e-05 7.36717716401993e-24)
(4.09802717639612e-07 -1.80537870185875e-05 4.13110487355424e-25)
(4.14742649887715e-07 -1.80538295789669e-05 1.15819302955326e-24)
(4.18016548785358e-07 -1.80538939727102e-05 8.33932977377397e-24)
(4.19942854117779e-07 -1.80539754768026e-05 9.18157223606989e-25)
(4.20831245661368e-07 -1.80540851661835e-05 -7.95320141680357e-25)
(4.21035454910196e-07 -1.80542048019297e-05 6.66046256129265e-24)
(4.20891656644026e-07 -1.80543424046665e-05 6.79172533396777e-25)
(4.2074127346161e-07 -1.80545044842539e-05 -8.46950473062404e-25)
(4.20998702592599e-07 -1.80546936566238e-05 1.4810670382237e-25)
(4.22090476681513e-07 -1.80548950421482e-05 -9.44554338834034e-25)
(4.24486483580187e-07 -1.80551212861074e-05 -8.73457853061181e-25)
(4.28756713296455e-07 -1.80553974627442e-05 7.2839747112346e-25)
(4.35565253325664e-07 -1.80557162532469e-05 8.06855357415676e-24)
(4.45728706391005e-07 -1.80560994055586e-05 -7.82395106660796e-24)
(4.6026347507241e-07 -1.80565738602061e-05 -5.70243539460584e-25)
(4.80492614015085e-07 -1.80572017313591e-05 -5.43117300213008e-25)
(5.08281900160148e-07 -1.80581329019023e-05 -1.49987762379641e-24)
(5.46508186516715e-07 -1.80597456126095e-05 -8.80975671695534e-24)
(5.99753847728477e-07 -1.80630624173763e-05 -7.59841327361464e-24)
(6.78226766977639e-07 -1.80710073371374e-05 -8.86901524997961e-26)
(7.95976716278146e-07 -1.80897153717362e-05 -7.71779114908543e-24)
(9.90736798567465e-07 -1.81330221825162e-05 -9.82111362067006e-24)
(1.34435402124428e-06 -1.8226292560625e-05 2.37259904739609e-25)
(1.87838723929804e-06 -1.83655990329768e-05 -6.26808678911151e-24)
(2.74699484164519e-06 -1.84864050908844e-05 -1.01129127117079e-23)
(4.05985091177746e-06 -1.79642826696307e-05 -5.41968077953254e-25)
(1.8101160511181e-06 -1.53951414753987e-05 -9.70979703721596e-24)
(-5.42407805297476e-07 -1.47155880781683e-05 1.70071681504488e-24)
(-5.86562220690951e-06 -1.74377570140301e-05 6.85488414183842e-24)
(-4.37945417279595e-06 -1.83037596700151e-05 2.03455934828777e-24)
(-3.0540377814389e-06 -1.78303919502448e-05 1.10633465058241e-24)
(-2.23238914379719e-06 -1.73721581881629e-05 1.19338289673771e-23)
(-1.61896091237813e-06 -1.70836593184483e-05 2.10095894944247e-24)
(-1.21056876367385e-06 -1.69366099010649e-05 8.72636982442763e-25)
(-9.10098631289031e-07 -1.68648725436356e-05 1.11273008675873e-24)
(-6.69489894185175e-07 -1.68283344271685e-05 2.26818076266853e-24)
(-4.74604337118183e-07 -1.68077701975961e-05 2.75105843231601e-24)
(-3.1178064880123e-07 -1.67946491876471e-05 9.99273183073183e-25)
(-1.74055705487713e-07 -1.67853966326613e-05 2.53869019759056e-24)
(-5.64349486829152e-08 -1.67784601573605e-05 2.80945659976582e-24)
(4.46348250463954e-08 -1.67730524087772e-05 3.31683704349919e-25)
(1.31760138572431e-07 -1.67687364734422e-05 1.67068719087922e-24)
(2.06974321277051e-07 -1.67652665754904e-05 1.08649213407846e-24)
(2.71905517533132e-07 -1.67624555670253e-05 3.72763146259007e-24)
(3.27895415063924e-07 -1.67601812389807e-05 4.45638419030183e-24)
(3.76070230114716e-07 -1.67583698782719e-05 2.35300693512183e-24)
(4.17409442231222e-07 -1.6756946107326e-05 5.40970036617352e-24)
(4.52796881706608e-07 -1.67558686722713e-05 2.36440190150394e-24)
(4.8302938385589e-07 -1.67550985480008e-05 1.78274882515457e-24)
(5.08852840140475e-07 -1.67546041759079e-05 2.35916634066877e-24)
(5.30949263174179e-07 -1.67543775651773e-05 9.14499500079133e-25)
(5.49969787574991e-07 -1.67543906233085e-05 1.51127266168924e-24)
(5.66593994382412e-07 -1.67546391829562e-05 3.84202412236895e-24)
(5.81460398097408e-07 -1.67551364797012e-05 1.35409854322686e-24)
(5.95204942070205e-07 -1.67558737075072e-05 -1.34596467059562e-24)
(6.08519161901112e-07 -1.67568444297126e-05 7.93978354270254e-25)
(6.22079874561516e-07 -1.67580771156825e-05 5.99905621857395e-25)
(6.36606345965206e-07 -1.67595960961623e-05 -1.92564304020731e-24)
(6.52939043836045e-07 -1.67614238912791e-05 -1.49774249206402e-24)
(6.71961619788575e-07 -1.67636021301162e-05 -1.46107249496964e-24)
(6.94646509346969e-07 -1.67661835547702e-05 -1.39876360077058e-24)
(7.22187240684176e-07 -1.67692723832557e-05 -1.13455028684884e-25)
(7.55976759724284e-07 -1.67729726956866e-05 2.05245380671594e-24)
(7.97711032487849e-07 -1.67774538809599e-05 -2.5298208360427e-24)
(8.49494751316816e-07 -1.67829787834953e-05 -9.37408849414438e-25)
(9.14012507508833e-07 -1.67899700225198e-05 -4.80236224003713e-25)
(9.94883222710691e-07 -1.67992464131991e-05 -1.19206577303961e-23)
(1.09718325959265e-06 -1.68124302838866e-05 -2.44743517808233e-24)
(1.22804822149981e-06 -1.68332628046854e-05 -8.20105021337476e-25)
(1.40141937459033e-06 -1.68705795580538e-05 -7.86391000396869e-24)
(1.63351260342826e-06 -1.69439753358103e-05 -1.37061615255929e-24)
(1.97160203185479e-06 -1.70927778343094e-05 -2.1402061783537e-24)
(2.51981106281827e-06 -1.73827830230759e-05 -8.27065068233278e-24)
(3.27144741250786e-06 -1.78443702888124e-05 2.75005661592452e-25)
(4.55874094191953e-06 -1.83394543596115e-05 -1.4763301054655e-24)
(6.09437709236695e-06 -1.74527952442554e-05 -5.49241264995455e-24)
(6.78779956765975e-07 -1.45907772123805e-05 -1.85978341585255e-24)
(2.21681218097593e-07 7.8361072719425e-06 2.06294270902339e-24)
(-3.90151658317993e-06 8.46295816008784e-06 4.75312546213466e-25)
(-3.49950268029965e-06 6.49885461110366e-06 2.47392143409762e-24)
(-2.91546208708102e-06 6.40859237306271e-06 6.28603479406448e-25)
(-2.43773463546308e-06 6.62246686353742e-06 -1.54141187965467e-24)
(-1.93999080623767e-06 6.82319733215794e-06 -1.38249297511929e-24)
(-1.55181181892553e-06 6.9589599027381e-06 9.31086555904941e-25)
(-1.23815019691058e-06 7.04552219384912e-06 1.14558514938605e-24)
(-9.751910971945e-07 7.10153293811191e-06 -1.08819734280689e-24)
(-7.57374743915466e-07 7.13966061750015e-06 -3.96487642101232e-24)
(-5.73647068714724e-07 7.16702102131426e-06 9.14042352687294e-24)
(-4.17502222368756e-07 7.1875481692377e-06 3.31405520787447e-24)
(-2.83747426880433e-07 7.20344872315094e-06 -4.88496774539407e-24)
(-1.68481694519488e-07 7.2160691311359e-06 3.96816434040937e-24)
(-6.87157596006139e-08 7.22625523561145e-06 -4.36969281829881e-24)
(1.79109064163903e-08 7.23455181773093e-06 1.61211175939752e-24)
(9.32938120523006e-08 7.24133676486154e-06 4.08795175519843e-24)
(1.59001264563076e-07 7.24689531547341e-06 -1.29890112064886e-24)
(2.16357466081303e-07 7.25140059849784e-06 2.75765659859533e-24)
(2.66510717319061e-07 7.25501322340785e-06 -2.00429651960872e-24)
(3.10486461057906e-07 7.2578397613295e-06 2.39664217988479e-24)
(3.4920377131747e-07 7.2599571975184e-06 -5.02493896900369e-24)
(3.83507462379676e-07 7.26143687132668e-06 3.24720921133165e-24)
(4.1419781736345e-07 7.26230180284588e-06 1.22176243530276e-24)
(4.42033230346096e-07 7.26260250649314e-06 -9.04913925366555e-25)
(4.67759507990162e-07 7.26234100036512e-06 4.2134152304606e-24)
(4.92116916196934e-07 7.26150830483791e-06 -2.4505869529465e-24)
(5.15841260628533e-07 7.26012779321178e-06 1.78352211113163e-24)
(5.39692515060623e-07 7.25817111991551e-06 1.68065266014096e-24)
(5.64466334961395e-07 7.2555932714556e-06 -5.74434929092567e-24)
(5.91010528163099e-07 7.25234314936974e-06 2.78578483347309e-24)
(6.20258195827256e-07 7.24836829607027e-06 -9.34929067305234e-24)
(6.53240204245404e-07 7.2435465639625e-06 5.18429114085771e-24)
(6.91114543621211e-07 7.23774683461997e-06 5.16635152686397e-24)
(7.3524267107299e-07 7.23078380408136e-06 -3.55745809804596e-24)
(7.87232338844806e-07 7.22238942422906e-06 1.98296961062448e-24)
(8.49038143993193e-07 7.21219176288686e-06 -2.38972428232622e-24)
(9.2306557645005e-07 7.19965457360137e-06 -8.68391223187584e-25)
(1.01233975893299e-06 7.18394271793541e-06 7.32019087342087e-24)
(1.12081198513231e-06 7.16372696807679e-06 -9.47502207654024e-24)
(1.25370721129541e-06 7.13675692045235e-06 -2.47352186720162e-24)
(1.41757036212486e-06 7.09905738307102e-06 -1.2234077454036e-24)
(1.62348231744798e-06 7.04324014452978e-06 -7.58496730003395e-25)
(1.87866515305831e-06 6.95585224189894e-06 -1.40239394930242e-24)
(2.20529025616583e-06 6.81730564940448e-06 -1.77309639254691e-24)
(2.64667702875379e-06 6.6083290542983e-06 -7.11739223685182e-24)
(3.0656244921312e-06 6.37246436904483e-06 -8.69648546860859e-25)
(3.62433989572889e-06 6.40830092071323e-06 -1.3362171628446e-24)
(4.10441578644476e-06 8.40652132710824e-06 -7.5797086308523e-24)
(-9.72425518584852e-08 7.85996618300136e-06 -1.30094223299673e-24)
(-1.40651656262001e-06 1.33722790395203e-05 2.39619865645895e-24)
(-2.2613449430959e-06 1.29047272511109e-05 1.04034980801727e-23)
(-2.5965564243054e-06 9.1102361496054e-06 2.76140081708179e-24)
(-2.51361240959842e-06 8.28583668131861e-06 7.4788783655279e-25)
(-2.30462298084775e-06 8.21407406242413e-06 9.83252007617921e-26)
(-1.930275890472e-06 8.32929152928396e-06 1.83549480308977e-24)
(-1.59619297991336e-06 8.45935923754325e-06 9.27862988541701e-25)
(-1.30858254020181e-06 8.56291376119224e-06 1.16429347467958e-24)
(-1.06095955319433e-06 8.6384941536006e-06 2.92919761857345e-24)
(-8.53219733642287e-07 8.69386005987302e-06 5.78231654579303e-24)
(-6.7680873396566e-07 8.73517928573584e-06 1.91293996909931e-24)
(-5.26229606178712e-07 8.76679482479646e-06 6.3048168947096e-24)
(-3.96826747826534e-07 8.79153482499455e-06 5.72278821687392e-24)
(-2.85001753574e-07 8.81125793260346e-06 1.37077435708949e-24)
(-1.87920893276012e-07 8.82719372905275e-06 5.98898163147754e-24)
(-1.03318852748969e-07 8.84017526737014e-06 2.40235455563119e-24)
(-2.93543265989299e-08 8.85078499322623e-06 6.26672066522816e-24)
(3.55058429459757e-08 8.85944636898133e-06 7.00152431445359e-24)
(9.25585370411334e-08 8.86646508928757e-06 3.22440973382166e-24)
(1.4294391371291e-07 8.87206500450985e-06 7.12316132372748e-24)
(1.87655449478395e-07 8.87642692973455e-06 2.70315216261096e-24)
(2.27598070881795e-07 8.87966073961739e-06 2.58131872310355e-24)
(2.63605472792274e-07 8.88188732469907e-06 6.01186061807492e-24)
(2.96457473592132e-07 8.88316317956209e-06 1.5749844294502e-24)
(3.26897700917427e-07 8.88353101171326e-06 2.08314599832454e-24)
(3.55646730759287e-07 8.88301064870562e-06 5.8401540301507e-24)
(3.83432024856964e-07 8.88161620711737e-06 1.86241902374386e-24)
(4.10971440196565e-07 8.87933304364907e-06 -7.82408103067724e-25)
(4.38997693400673e-07 8.87613464877296e-06 4.29089455450157e-24)
(4.68289080866761e-07 8.87196281016996e-06 1.36444943829848e-24)
(4.99686394660541e-07 8.86673011406266e-06 -1.9256854965297e-24)
(5.34089803279222e-07 8.86032369813855e-06 -1.29817340531091e-24)
(5.72500224025533e-07 8.85258428733032e-06 -1.59610459199114e-24)
(6.16066901318853e-07 8.84329688487536e-06 -1.49107788343865e-24)
(6.66112819419444e-07 8.83215976250743e-06 5.90434934804638e-25)
(7.24185951047818e-07 8.81876371304692e-06 4.38220959592682e-24)
(7.92172241016609e-07 8.8025332131859e-06 -3.5581668770445e-24)
(8.72354077043147e-07 8.78267433655727e-06 -1.1810757292591e-24)
(9.6758040134763e-07 8.75797795090964e-06 1.94744988078425e-26)
(1.08147445446662e-06 8.72659747811157e-06 6.60970297323696e-25)
(1.21865616523993e-06 8.68568883679046e-06 -5.00856402359598e-24)
(1.38453212204328e-06 8.63088928188767e-06 -4.40491485685243e-24)
(1.58730774457212e-06 8.55580818919787e-06 2.46654851049882e-24)
(1.8278672763173e-06 8.45195402267361e-06 -3.91916348795827e-24)
(2.10971610619784e-06 8.31940452703528e-06 -4.2849107149636e-24)
(2.43507080100215e-06 8.19467660097983e-06 1.90045019680853e-24)
(2.59377053617528e-06 8.23412652445041e-06 -4.21992978344869e-24)
(2.66590007855377e-06 8.97800344061785e-06 -4.35376581251289e-24)
(2.37594043453598e-06 1.28384407750717e-05 3.05705224026206e-24)
(1.44860257175722e-06 1.33269155713695e-05 -2.72794796475188e-24)
(-1.54472625854936e-06 1.2852245161902e-05 1.35331897580349e-24)
(-1.61177481721666e-06 1.03952695568065e-05 7.44748944741062e-24)
(-2.26257873971128e-06 6.16061089294133e-06 1.55101556777716e-24)
(-2.25255752492556e-06 5.19331035571664e-06 2.57413021170887e-25)
(-2.12407081023755e-06 5.09349043065082e-06 -1.36853616415487e-24)
(-1.81728537956086e-06 5.22886221472148e-06 1.71576885206328e-24)
(-1.5310440904655e-06 5.3905864063965e-06 4.79326194404413e-25)
(-1.27716278373634e-06 5.52157131053078e-06 6.10177257172689e-25)
(-1.05456966999796e-06 5.61830243370331e-06 2.58283391443843e-24)
(-8.65553169229255e-07 5.69006290097997e-06 3.76550248570414e-24)
(-7.03700392608178e-07 5.74417941669478e-06 -1.91729070958733e-25)
(-5.64694524360458e-07 5.78591444326602e-06 2.98992834099474e-24)
(-4.44688155337601e-07 5.81873967028942e-06 3.85253417946313e-24)
(-3.40614190155473e-07 5.84496543797011e-06 -2.34930282800976e-25)
(-2.49971675453753e-07 5.86616740389039e-06 4.11619110127823e-24)
(-1.70719501200031e-07 5.88343034256944e-06 1.35827597250132e-24)
(-1.01185884405339e-07 5.89751371370494e-06 3.21237012866635e-24)
(-3.99525617353919e-08 5.908975313981e-06 4.30246109367788e-24)
(1.41870590651189e-08 5.91822436345044e-06 1.74698764541017e-24)
(6.22973722835231e-08 5.92556651858649e-06 4.49264617211399e-24)
(1.05311421507759e-07 5.93122639216617e-06 1.45300920463475e-24)
(1.4407875144755e-07 5.93538575812428e-06 2.35558269410093e-24)
(1.79384215507754e-07 5.93817047491868e-06 2.82217193517738e-24)
(2.11955240331581e-07 5.93967773345728e-06 8.47812568806678e-25)
(2.42498016574917e-07 5.93995727036856e-06 2.03126841366166e-24)
(2.71691126919537e-07 5.93905128455096e-06 3.08457908356836e-24)
(3.00204859113616e-07 5.93697548182161e-06 1.57053573575596e-24)
(3.28716826685888e-07 5.93369515380711e-06 -1.21157919581758e-24)
(3.57919437188264e-07 5.92917714720801e-06 2.027172961217e-24)
(3.88541821600713e-07 5.92334580897678e-06 1.51450095423606e-24)
(4.21368717330218e-07 5.91608361249603e-06 -1.45747258449181e-24)
(4.57237638973843e-07 5.90723244700385e-06 5.25745127274085e-25)
(4.97092006914801e-07 5.89658373141839e-06 -1.73006862981975e-24)
(5.4200155140573e-07 5.88385578386688e-06 -1.64821909462847e-24)
(5.93183229027751e-07 5.86863148882191e-06 1.36325826363978e-24)
(6.52060150785123e-07 5.85038434029066e-06 2.09193441792996e-24)
(7.20342471332822e-07 5.82836168882827e-06 -1.75012814353283e-24)
(8.00070717005105e-07 5.80153011111507e-06 -6.5297769951359e-25)
(8.93732352056902e-07 5.76836630726588e-06 -8.19139866143057e-25)
(1.00439598514509e-06 5.72653022383669e-06 3.95809567222875e-24)
(1.13583039572198e-06 5.67255937908011e-06 -2.01911462595735e-24)
(1.29216356979405e-06 5.60114609526905e-06 -1.92738612103849e-24)
(1.47921693352309e-06 5.50474296040716e-06 4.5498885689643e-24)
(1.69489140129726e-06 5.37348116688283e-06 -1.73811553582169e-24)
(1.93643526516041e-06 5.20950338715478e-06 -1.81284201056074e-24)
(2.19988750051014e-06 5.06437047447432e-06 4.86997615112374e-24)
(2.28265411024917e-06 5.12359092647455e-06 -1.85610047319251e-24)
(2.2975998731059e-06 5.99657500916048e-06 -2.03221464998243e-24)
(1.6628798231725e-06 1.03152674569081e-05 6.19924361321424e-24)
(1.5361299368262e-06 1.2812973550725e-05 -1.72842476948179e-24)
(-9.59428746264133e-07 1.100524459899e-05 6.37093630677525e-25)
(-1.40005737096214e-06 7.44406512495641e-06 5.78995315147207e-24)
(-2.12071171777638e-06 3.39124281147757e-06 7.21686667770846e-25)
(-2.06109364178676e-06 2.47074724415742e-06 1.63173048738766e-25)
(-1.94888880068346e-06 2.40875448337175e-06 1.06712985452731e-24)
(-1.6880485611737e-06 2.57651815621472e-06 1.94056942775729e-24)
(-1.44282890843375e-06 2.76687537433175e-06 2.54194747150522e-25)
(-1.22091226465599e-06 2.92034675799048e-06 2.81216243196464e-25)
(-1.02251014089227e-06 3.03446608359414e-06 2.15354740084808e-24)
(-8.51390626336793e-07 3.11996340891446e-06 2.49019705254262e-24)
(-7.0317017121398e-07 3.1850626764395e-06 -1.32731645503801e-24)
(-5.74769467111942e-07 3.23564011390593e-06 1.0313151027887e-24)
(-4.63216187469955e-07 3.27562272246584e-06 2.59650238866921e-24)
(-3.65997906082157e-07 3.3076678137901e-06 -1.19054215087372e-24)
(-2.80983647873916e-07 3.33361647263187e-06 2.68318500726464e-24)
(-2.0639530588157e-07 3.35473930400549e-06 5.64791891186865e-25)
(-1.40733284717017e-07 3.37195387806149e-06 1.32394707162275e-24)
(-8.27056091965036e-08 3.3859324513463e-06 2.90565367244561e-24)
(-3.12016134742786e-08 3.39716990555476e-06 7.77268408977585e-25)
(1.47688077021222e-08 3.40604342090012e-06 2.86579093563278e-24)
(5.60777533276486e-08 3.41283311749854e-06 6.5220955626662e-25)
(9.35211295182891e-08 3.41776008903811e-06 2.02476805347859e-24)
(1.27837242197312e-07 3.42097808852428e-06 1.06214540415301e-24)
(1.5971631175684e-07 3.42260999653198e-06 3.86746678927506e-25)
(1.89822442935137e-07 3.42272783788228e-06 2.0193174800006e-24)
(2.18797889431225e-07 3.4213684859788e-06 1.30772548904709e-24)
(2.47267820394348e-07 3.4185488752247e-06 1.72483848217147e-24)
(2.75874015083298e-07 3.41424426162644e-06 -1.5749578891586e-24)
(3.05275619555823e-07 3.40840255545442e-06 7.61088946779687e-25)
(3.3615257899596e-07 3.40092442256143e-06 1.63986482861554e-24)
(3.69245415511107e-07 3.39167162314726e-06 -1.5850810836616e-24)
(4.05338862698761e-07 3.38044312274074e-06 1.36111350933869e-24)
(4.45309944408367e-07 3.36699862431007e-06 -1.81558758890136e-24)
(4.90146929038374e-07 3.35096814286804e-06 -1.84342740530426e-24)
(5.40971487735345e-07 3.33186896022956e-06 1.61763602661189e-24)
(5.9907778075541e-07 3.30906299028335e-06 8.12787308945905e-25)
(6.65983687989666e-07 3.28165123093558e-06 -6.49527043452096e-25)
(7.43470074192921e-07 3.24841217877711e-06 -3.08223870375904e-25)
(8.33643319214031e-07 3.20757325028588e-06 -1.45552166434179e-24)
(9.38990858926154e-07 3.15646865206506e-06 2.68452379440675e-24)
(1.06237981922996e-06 3.0911959686433e-06 -5.75909879774539e-25)
(1.20665039467444e-06 3.00586380917374e-06 -6.15963518324133e-25)
(1.37547768033814e-06 2.89210608713412e-06 2.67511237382321e-24)
(1.56501484785293e-06 2.73878031317035e-06 -5.74219635691477e-25)
(1.7711617735823e-06 2.54664227680897e-06 -5.83644379439597e-25)
(1.99356076201359e-06 2.36800945925802e-06 2.9631451283248e-24)
(2.0645933126842e-06 2.37793857526296e-06 -5.78902628206042e-25)
(2.13950734583618e-06 3.19249204375898e-06 -6.07090481308474e-25)
(1.42532243277466e-06 7.33016984954704e-06 4.2267302528118e-24)
(9.40718006151026e-07 1.09571064332584e-05 -7.01904674034696e-25)
(-4.60323762194817e-07 9.67308423634287e-06 2.29285331475332e-25)
(-1.25824968688704e-06 5.78475421565244e-06 2.51373644682178e-24)
(-1.9339527973271e-06 1.83682041292719e-06 2.58491503189601e-25)
(-1.86180437052987e-06 9.22623505412367e-07 5.72853284704646e-26)
(-1.77120779820555e-06 8.78427287731671e-07 3.13008906420621e-25)
(-1.55656850087105e-06 1.06214397720613e-06 5.71298603905569e-25)
(-1.34968536189191e-06 1.26895602330366e-06 8.75030857459832e-26)
(-1.15738165332168e-06 1.4372323425532e-06 9.12368485990333e-26)
(-9.81027135069616e-07 1.56419325338159e-06 6.17013636146565e-25)
(-8.2587892616082e-07 1.6606225568736e-06 1.08995087472218e-24)
(-6.89552662147363e-07 1.73490773973321e-06 -3.43780346514655e-25)
(-5.70182775537301e-07 1.7931301315136e-06 7.85793488816929e-25)
(-4.65648176096112e-07 1.83944828903432e-06 1.27974719534259e-24)
(-3.73999733791486e-07 1.87673104221259e-06 -2.58008150298596e-25)
(-2.93485832400369e-07 1.90699445801299e-06 1.23207784569984e-24)
(-2.22575132985054e-07 1.93164828005645e-06 2.25921104531258e-25)
(-1.59941715059953e-07 1.95174323032871e-06 9.11270495698608e-25)
(-1.04420934721665e-07 1.96803236677492e-06 1.33243929797937e-24)
(-5.4991521579461e-08 1.98109938084467e-06 2.9420414553809e-25)
(-1.07331110831138e-08 1.99137671296239e-06 1.29161242150461e-24)
(2.9172621588008e-08 1.99918993547267e-06 2.28732185712767e-25)
(6.5474715234921e-08 2.00479622975687e-06 5.81024353614865e-25)
(9.88764402213987e-08 2.00838409143793e-06 8.15582985539186e-25)
(1.30033001952798e-07 2.01008964619652e-06 1.52847456881736e-25)
(1.59572549941348e-07 2.0100003934147e-06 6.179838649467e-25)
(1.8810814684887e-07 2.00816284077911e-06 8.7302444814543e-25)
(2.16240129314475e-07 2.00459024155515e-06 5.01879234891045e-25)
(2.4457959815988e-07 1.99926719758233e-06 -3.93971949683697e-25)
(2.73750659222862e-07 1.99212051931902e-06 7.40250358873514e-25)
(3.04403756984344e-07 1.98303624874971e-06 4.62763130080794e-25)
(3.37234091471813e-07 1.97184864563644e-06 -4.29719105180856e-25)
(3.72985276708876e-07 1.95833113547406e-06 3.86991230776544e-25)
(4.12479028187273e-07 1.94219037624841e-06 -4.87029955659829e-25)
(4.56627949037574e-07 1.9230077153163e-06 -5.27695757387524e-25)
(5.06466777808253e-07 1.90024209162127e-06 4.4463624836856e-25)
(5.63159770328845e-07 1.87314792955651e-06 5.75027015797377e-25)
(6.28043121845529e-07 1.8407224302554e-06 -5.81927003455758e-25)
(7.02648338711244e-07 1.80161791244108e-06 -1.1733978016343e-25)
(7.88709351208073e-07 1.75388970932842e-06 -4.0705319717632e-25)
(8.88133006836856e-07 1.694677711963e-06 7.51407446649451e-25)
(1.00292080837833e-06 1.61988332785425e-06 -6.64101720904172e-25)
(1.13468609890322e-06 1.52348129587744e-06 -7.06113002152641e-25)
(1.28509667445867e-06 1.39704326808395e-06 6.72118734866908e-25)
(1.44875356240381e-06 1.22951999188152e-06 -7.26999572401203e-25)
(1.62091546144548e-06 1.02161567320594e-06 -7.07942542225913e-25)
(1.80142365758273e-06 8.2571686080259e-07 8.00370278789497e-25)
(1.85566268983489e-06 8.06031672246088e-07 -7.06459140877539e-25)
(1.94556126964225e-06 1.6012406418104e-06 -9.19617157839882e-25)
(1.27753115292163e-06 5.62839453204492e-06 1.24213320225739e-24)
(4.45836646800954e-07 9.58674181519916e-06 -9.40684642780096e-25)
(-2.03178586148723e-07 9.09983725393603e-06 7.33236639645445e-26)
(-1.09396679251341e-06 5.23468863919483e-06 5.81254520540746e-25)
(-1.68581707127524e-06 1.21217401541258e-06 8.34142925161836e-26)
(-1.64775957253072e-06 2.43660242366094e-07 1.12041768947405e-26)
(-1.59039221179369e-06 1.83697348716262e-07 -2.60460824411304e-26)
(-1.42316606904472e-06 3.64671326515595e-07 1.59181574267476e-25)
(-1.25229067488542e-06 5.76164908657679e-07 3.14883388603965e-26)
(-1.08752630943389e-06 7.52185809159654e-07 3.53064706978946e-26)
(-9.31643573916272e-07 8.87754322928515e-07 1.97941512615145e-25)
(-7.91316902476906e-07 9.92460822624713e-07 2.92921836143999e-25)
(-6.65974250439675e-07 1.07421218119074e-06 -9.25101312744366e-26)
(-5.54874421472462e-07 1.1389406959313e-06 1.795873604217e-25)
(-4.56706594080633e-07 1.19081593791392e-06 3.36816970871498e-25)
(-3.70055885665318e-07 1.23278469592635e-06 -6.67250212498087e-26)
(-2.93540530988703e-07 1.26696385507146e-06 3.1425940661989e-25)
(-2.25880070942202e-07 1.29486946273729e-06 7.36831057198659e-26)
(-1.65920691122655e-07 1.31762689365315e-06 2.28635258986808e-25)
(-1.12621898434758e-07 1.33607117771329e-06 3.39116269108424e-25)
(-6.50492264775939e-08 1.35084420211965e-06 9.42511725109113e-26)
(-2.23578384199749e-08 1.36242976147447e-06 3.23949547824316e-25)
(1.62203790045465e-08 1.37119190033757e-06 7.09289859207673e-26)
(5.1395296058223e-08 1.37742608339623e-06 1.65952199261882e-25)
(8.38305086304588e-08 1.38134219736917e-06 1.96513756649997e-25)
(1.14152342853927e-07 1.38309222616895e-06 4.6675720153048e-26)
(1.42961365367142e-07 1.38277980014439e-06 1.74509038577237e-25)
(1.70842572641338e-07 1.38046244636149e-06 2.11600312239794e-25)
(1.98372861980172e-07 1.37615985949859e-06 1.3492696324933e-25)
(2.26135371044358e-07 1.3698331346561e-06 -9.76435826862471e-26)
(2.54725813136044e-07 1.36141502429033e-06 1.80290082520507e-25)
(2.84763034224906e-07 1.35077544750134e-06 1.22765399587022e-25)
(3.16908866905406e-07 1.33771652636596e-06 -1.05878837885911e-25)
(3.51863164307983e-07 1.32200349514745e-06 9.96769469965099e-26)
(3.90394745119201e-07 1.3032856953249e-06 -1.32791468689857e-25)
(4.33351698576967e-07 1.28111356987702e-06 -1.42253501502608e-25)
(4.81670145087562e-07 1.25487916525908e-06 1.18164200447334e-25)
(5.36394497414164e-07 1.22377693245758e-06 1.38612141455585e-25)
(5.98691385980799e-07 1.18672198729402e-06 -1.25883512101821e-25)
(6.69838067163482e-07 1.14229031164303e-06 -3.30227333251905e-26)
(7.51202727550455e-07 1.08843879576368e-06 -9.30224021911852e-26)
(8.44155502377402e-07 1.02224701799359e-06 3.90541718198592e-25)
(9.49899819075184e-07 9.39643830376637e-07 -1.42088681386496e-25)
(1.06893363823479e-06 8.34810348639563e-07 -1.57861610186132e-25)
(1.20114767695596e-06 6.99891711690496e-07 3.86798695856654e-25)
(1.33980240574276e-06 5.25123663769621e-07 -1.71270952386981e-25)
(1.47950140560905e-06 3.13060120873958e-07 -1.54473117298598e-25)
(1.61620324670073e-06 1.18422620065672e-07 4.35246001843292e-25)
(1.64168948837231e-06 1.04532265201585e-07 -1.45618411947227e-25)
(1.69387073706006e-06 9.41427144190722e-07 -1.9944978113982e-25)
(1.11219688294552e-06 5.03855165512165e-06 6.31725376498805e-25)
(1.93836801114406e-07 8.96407742674966e-06 -2.40649557990565e-25)
(-1.00986781147546e-07 8.99749436001502e-06 4.16380773427749e-26)
(-9.21378023165231e-07 5.25084140206359e-06 3.45492483765704e-25)
(-1.42695816209077e-06 1.06348001684219e-06 4.81012448201633e-26)
(-1.43695066149826e-06 1.35962703336243e-08 2.22548191431667e-26)
(-1.41337294904143e-06 -8.38819973031633e-08 1.19791186116766e-25)
(-1.29002093894319e-06 8.21304216891327e-08 1.49624102864444e-25)
(-1.15174341299842e-06 2.89994089880616e-07 2.58639935881297e-26)
(-1.01224801901441e-06 4.68342720501783e-07 2.99911299214209e-26)
(-8.75516656367207e-07 6.08985031544889e-07 1.79755103224397e-25)
(-7.49301521364055e-07 7.1960504862534e-07 1.99290893215458e-25)
(-6.34551139467757e-07 8.07231881436537e-07 -1.03125269550912e-25)
(-5.31496391610862e-07 8.77371150578525e-07 3.81927971994649e-26)
(-4.39550254619434e-07 9.34042493992295e-07 1.81641603854194e-25)
(-3.57800400107299e-07 9.80161717607418e-07 -1.04138170084761e-25)
(-2.85215742992106e-07 1.01787468825118e-06 1.7074541471281e-25)
(-2.20760468523215e-07 1.04875538384002e-06 3.59613376328264e-26)
(-1.63453977065528e-07 1.07397168668379e-06 6.66977955975362e-26)
(-1.12379981591149e-07 1.09442557786825e-06 1.73195324688612e-25)
(-6.66971044487618e-08 1.11079115729122e-06 4.92586519255113e-26)
(-2.56301312513366e-08 1.12359826285397e-06 1.63483621973379e-25)
(1.15381251201191e-08 1.1332558491377e-06 4.07701777643896e-26)
(4.54733955146593e-08 1.14007633641877e-06 1.42518976879222e-25)
(7.68018435005748e-08 1.14429452629067e-06 5.12151974899152e-26)
(1.06120610643467e-07 1.14607986076596e-06 2.31241695038971e-26)
(1.34001918634722e-07 1.14554736264488e-06 1.28692684793824e-25)
(1.61005556371793e-07 1.14276235210407e-06 6.49240074185027e-26)
(1.87678606003243e-07 1.13774284620145e-06 1.06549839638777e-25)
(2.14581518743769e-07 1.13044945025727e-06 -9.38831022357115e-26)
(2.42285841471029e-07 1.12080334117008e-06 3.56432450196337e-26)
(2.71374680611704e-07 1.10866130246084e-06 1.00866786511971e-25)
(3.02476199646692e-07 1.09381558640267e-06 -7.9377307866743e-26)
(3.36247007167526e-07 1.07600113041021e-06 8.27994692681976e-26)
(3.73404295942898e-07 1.05484202988561e-06 -1.2799587551506e-25)
(4.14724595091825e-07 1.02984283998131e-06 -1.14593121483103e-25)
(4.61054539136812e-07 1.00036071949453e-06 9.50137524368981e-26)
(5.13317894878816e-07 9.65547288096833e-07 3.91957429473004e-26)
(5.72507085805285e-07 9.24263808686629e-07 -2.76198735446408e-26)
(6.39659997666021e-07 8.75042213685119e-07 -1.29623827264173e-26)
(7.15801472354188e-07 8.15826870948968e-07 -9.42961166390742e-26)
(8.01806781154293e-07 7.43750857897827e-07 1.73322650170235e-25)
(8.98167761542808e-07 6.5491549350092e-07 -1.77479990131247e-26)
(1.00443747897796e-06 5.43959962259962e-07 -2.16118956561984e-26)
(1.11906965741223e-06 4.03975791421618e-07 1.59103617590852e-25)
(1.23433936691704e-06 2.27130365929693e-07 -2.40009423890065e-26)
(1.34438622412958e-06 1.88544311443589e-08 -1.84026104627053e-26)
(1.44004653467289e-06 -1.62458583764847e-07 1.67641711625586e-25)
(1.43547041538614e-06 -1.46399451977218e-07 -1.78198814006391e-26)