/*--------------------------------*- C++ -*----------------------------------*\
  =========                 |
  \\      /  F ield         | OpenFOAM: The Open Source CFD Toolbox
   \\    /   O peration     | Website:  https://openfoam.org
    \\  /    A nd           | Version:  10
     \\/     M anipulation  |
\*---------------------------------------------------------------------------*/
FoamFile
{
    format      ascii;
    class       volScalarField;
    location    "2.6";
    object      wallHeatFlux;
}
// * * * * * * * * * * * * * * * * * * * * * * * * * * * * * * * * * * * * * //

dimensions      [1 0 -3 0 0 0 0];

internalField   uniform 0;

boundaryField
{
    back
    {
        type            calculated;
        value           uniform 0;
    }
    bottom
    {
        type            calculated;
        value           nonuniform List<scalar> 
50
(
239.826838497514
251.129284391527
258.022468117178
260.474356179242
261.247448530073
261.483883368359
261.553529981592
261.572672946525
261.577402588919
261.578551989586
261.578594294051
261.578520629984
261.578456994716
261.578334661892
261.578236136667
261.578101180101
261.578063882652
261.577991404803
261.577900997717
261.577856772099
261.577832700598
261.577840019308
261.577852121592
261.577829644785
261.577791997087
261.577787445063
261.577777725117
261.577771222975
261.577791513241
261.577772283845
261.577769441206
261.577815219389
261.577811159004
261.577797800592
261.577820438458
261.577871096108
261.5779377457
261.577973446245
261.578076311678
261.578080355889
261.577783092424
261.576253922973
261.570141581008
261.547826654379
261.472589058314
261.228735342766
260.455096254813
258.0099879261
251.016230466237
239.847793143552
)
;
    }
    left
    {
        type            calculated;
        value           uniform 0;
    }
    front
    {
        type            calculated;
        value           uniform 0;
    }
    right
    {
        type            calculated;
        value           uniform 0;
    }
    top
    {
        type            calculated;
        value           uniform 0;
    }
}


// ************************************************************************* //
