/*--------------------------------*- C++ -*----------------------------------*\
  =========                 |
  \\      /  F ield         | OpenFOAM: The Open Source CFD Toolbox
   \\    /   O peration     | Website:  https://openfoam.org
    \\  /    A nd           | Version:  10
     \\/     M anipulation  |
\*---------------------------------------------------------------------------*/
FoamFile
{
    format      ascii;
    class       volScalarField;
    location    "5.2";
    object      alphat;
}
// * * * * * * * * * * * * * * * * * * * * * * * * * * * * * * * * * * * * * //

dimensions      [1 -1 -1 0 0 0 0];

internalField   nonuniform List<scalar> 
2500
(
1.17945726660881e-14
2.30181944211379e-13
9.74432847132798e-13
1.66039756691484e-12
2.21147765329244e-12
2.61250626209466e-12
2.87842861327606e-12
3.03985022647688e-12
3.12998468781808e-12
3.17650923981732e-12
3.19881663091742e-12
3.2087986168555e-12
3.21298541697549e-12
3.21463790449201e-12
3.215253545418e-12
3.21547035472559e-12
3.21554230673124e-12
3.2155644517013e-12
3.2155703793659e-12
3.21557135775675e-12
3.21557098569272e-12
3.2155703414381e-12
3.21556973887547e-12
3.21556924226973e-12
3.21556887449131e-12
3.2155686465876e-12
3.21556857940498e-12
3.21556861114654e-12
3.21556863422007e-12
3.21556864933386e-12
3.21556813663903e-12
3.21556540344736e-12
3.2155555529256e-12
3.21552395724237e-12
3.21542909966368e-12
3.21515904507799e-12
3.2144274724696e-12
3.21254275048615e-12
3.20793595578238e-12
3.19728766258594e-12
3.17410208934341e-12
3.12674900861361e-12
3.03645507389265e-12
2.87649185814263e-12
2.61452901039898e-12
2.21993984156688e-12
1.67583500156084e-12
9.92727864187491e-13
2.38501986653959e-13
1.25131610137701e-14
1.16618805467666e-12
5.97261414951558e-11
2.582229846877e-10
4.40583847554612e-10
5.87631019016784e-10
6.95223249201118e-10
7.67043300257698e-10
8.10971446967342e-10
8.35703612656733e-10
8.48581620661852e-10
8.54812331013657e-10
8.57626142808799e-10
8.58817296019578e-10
8.59291776388549e-10
8.59470174797257e-10
8.59533586258929e-10
8.59554843171163e-10
8.59561469729613e-10
8.5956328684285e-10
8.59563620145193e-10
8.59563540706447e-10
8.5956337221494e-10
8.59563211473121e-10
8.59563078573249e-10
8.59562979945959e-10
8.59562919118774e-10
8.59562901809889e-10
8.59562910140125e-10
8.59562915158773e-10
8.59562913288855e-10
8.59562745242834e-10
8.59561910749713e-10
8.59558973195334e-10
8.59549651073527e-10
8.59521906680644e-10
8.59443550569865e-10
8.5923295614715e-10
8.58694721206256e-10
8.57389739839938e-10
8.54397991521873e-10
8.47937212932795e-10
8.34849596008149e-10
8.10092997539744e-10
7.66570454011963e-10
6.95804671434409e-10
5.89892681540169e-10
4.44635284386125e-10
2.62976079461709e-10
6.18287772434928e-11
1.23399623834028e-12
4.13126109315e-12
1.07178895894506e-09
3.63318591334854e-07
6.17816838707482e-07
8.21469496995338e-07
9.70055743908584e-07
1.06926418523888e-06
1.13010853141629e-06
1.16452051215924e-06
1.18254306248156e-06
1.19132079295135e-06
1.19531323495527e-06
1.19701596297983e-06
1.19769942885191e-06
1.19795842273025e-06
1.19805123443216e-06
1.19808262962975e-06
1.19809253351699e-06
1.19809531085067e-06
1.19809586560484e-06
1.19809579051714e-06
1.19809557366606e-06
1.19809535999757e-06
1.19809518192704e-06
1.19809504911951e-06
1.19809496679425e-06
1.19809494278837e-06
1.19809495121319e-06
1.19809495510985e-06
1.19809494193879e-06
1.19809467355675e-06
1.19809342360366e-06
1.1980891031405e-06
1.19807550235595e-06
1.19803527005866e-06
1.19792225711571e-06
1.19762010392843e-06
1.1968519219914e-06
1.19499935021512e-06
1.19077504242178e-06
1.18170106469505e-06
1.16341353521571e-06
1.12897932864625e-06
1.06866479837552e-06
9.70810558628155e-07
8.24370733892054e-07
6.23002314319287e-07
3.69400388509031e-07
1.10564944911529e-09
4.33110900870211e-12
7.29719371264914e-12
1.90643046539022e-09
6.46712063285964e-07
1.09358537172584e-06
1.44809211145725e-06
1.70525442779116e-06
1.87638272915003e-06
1.98118690469023e-06
2.04046346657458e-06
2.07154148599551e-06
2.08670485670351e-06
2.09361758877144e-06
2.09657368963967e-06
2.09776380586923e-06
2.09821627723971e-06
2.09837901747151e-06
2.09843430668412e-06
2.09845185354489e-06
2.09845683140282e-06
2.09845786454174e-06
2.09845776764019e-06
2.09845741748479e-06
2.0984570622985e-06
2.0984567641793e-06
2.09845654034738e-06
2.09845639955617e-06
2.09845635499946e-06
2.09845636243948e-06
2.09845637160204e-06
2.09845634393401e-06
2.09845587384299e-06
2.09845374122383e-06
2.09844637634043e-06
2.09842316905294e-06
2.09835442284715e-06
2.09816102589369e-06
2.09764322735868e-06
2.09632514809564e-06
2.09314304979325e-06
2.08588075238835e-06
2.07026964982788e-06
2.03878562145819e-06
1.97945373550502e-06
1.87539586222593e-06
1.70621260077416e-06
1.4521486724219e-06
1.1009373650969e-06
6.55325756580447e-07
1.95381348175725e-09
7.57289987845205e-12
1.03608880731467e-11
2.7084049372754e-09
9.14703444314426e-07
1.5390786663931e-06
2.03090681894842e-06
2.38602352338044e-06
2.62170735952067e-06
2.76589003586183e-06
2.84744560727677e-06
2.89024414211249e-06
2.911158382975e-06
2.92071192608783e-06
2.92480697463252e-06
2.92646004392379e-06
2.92709041081694e-06
2.92731790831432e-06
2.92739551985218e-06
2.92742029952333e-06
2.92742741538691e-06
2.92742895114717e-06
2.92742887009293e-06
2.92742842487767e-06
2.92742795928e-06
2.92742756494534e-06
2.9274272663773e-06
2.92742707453307e-06
2.92742700404489e-06
2.927427006349e-06
2.927427023879e-06
2.92742696986824e-06
2.92742630651246e-06
2.9274233987557e-06
2.9274133770434e-06
2.92738178084765e-06
2.92728805916822e-06
2.92702399530815e-06
2.92631591610994e-06
2.92451093648413e-06
2.92014797921513e-06
2.9101801592054e-06
2.88873389844855e-06
2.84544616570789e-06
2.76379831941784e-06
2.6204351482017e-06
2.38693362245139e-06
2.03530777578175e-06
1.54719132519099e-06
9.24245091929316e-07
2.76153447217823e-09
1.06752687935718e-11
1.32095286355858e-11
3.45396425490283e-09
1.16117719962592e-06
1.94532865149415e-06
2.55939315809973e-06
3.00109799242705e-06
3.29364043159601e-06
3.47246997681167e-06
3.5736443919213e-06
3.6267874856953e-06
3.65279443721878e-06
3.66469634281682e-06
3.66980915542358e-06
3.67187820793447e-06
3.67266941806797e-06
3.67295588813228e-06
3.67305401277763e-06
3.67308553039879e-06
3.67309469556349e-06
3.67309675391166e-06
3.67309673081287e-06
3.67309622972074e-06
3.67309568730075e-06
3.67309522264262e-06
3.67309486721027e-06
3.673094632826e-06
3.67309452958705e-06
3.67309452569551e-06
3.67309455743462e-06
3.67309445865112e-06
3.67309360138611e-06
3.67309001208897e-06
3.67307768728661e-06
3.67303884265058e-06
3.67292351663922e-06
3.67259816972291e-06
3.6717245994276e-06
3.66949496758967e-06
3.66409954297729e-06
3.65176114071172e-06
3.62519302539384e-06
3.57152883901403e-06
3.47023503431625e-06
3.29221005022731e-06
3.00184870867108e-06
2.56364039464971e-06
1.95329463182036e-06
1.17062110652986e-06
3.50794482396989e-09
1.35385407796421e-11
1.57802028921868e-11
4.12772637801541e-09
1.38217702937772e-06
2.30699814389262e-06
3.02771495518959e-06
3.54456967104016e-06
3.88633931748251e-06
4.09515663793122e-06
4.21333387483369e-06
4.27546470004823e-06
4.30591162624442e-06
4.31986949110857e-06
4.32587765637899e-06
4.32831465797211e-06
4.32924901503165e-06
4.32958834648584e-06
4.32970502741915e-06
4.32974272609662e-06
4.32975382539059e-06
4.32975641779115e-06
4.32975649274625e-06
4.32975597411212e-06
4.32975538752105e-06
4.32975487781381e-06
4.32975448317967e-06
4.32975421591158e-06
4.32975408190535e-06
4.32975406767873e-06
4.32975408662693e-06
4.32975393139042e-06
4.32975289493146e-06
4.32974870919688e-06
4.3297344056195e-06
4.32968937331903e-06
4.32955561186333e-06
4.32917787834797e-06
4.32816249823314e-06
4.3255680915054e-06
4.31928383100502e-06
4.30490084618884e-06
4.27390860876235e-06
4.21127069888035e-06
4.09296860937431e-06
3.88489971376142e-06
3.54516917769467e-06
3.03157482713046e-06
2.31432027148073e-06
1.39093454135364e-06
4.17962277636394e-09
1.61084140871419e-11
1.80396105613273e-11
4.72125280460869e-09
1.57575360383041e-06
2.62194470086928e-06
3.43403073397655e-06
4.01501809031993e-06
4.39873676895491e-06
4.63311677961822e-06
4.76581229875629e-06
4.83563841383764e-06
4.86990030169764e-06
4.88563215925861e-06
4.89241660429106e-06
4.89517434611395e-06
4.8962342446007e-06
4.89662026698469e-06
4.89675348859678e-06
4.89679677456622e-06
4.89680967111009e-06
4.89681279778224e-06
4.89681300501176e-06
4.89681250247805e-06
4.89681190074914e-06
4.89681136861891e-06
4.89681095079268e-06
4.89681066008537e-06
4.89681050038078e-06
4.89681046179623e-06
4.89681045195963e-06
4.89681023505239e-06
4.89680903101279e-06
4.89680432186503e-06
4.89678833391751e-06
4.89673808305383e-06
4.89658880029688e-06
4.89616691122814e-06
4.89503175666356e-06
4.89212858549887e-06
4.88509048165381e-06
4.86897057397285e-06
4.83421505917708e-06
4.76393632433419e-06
4.63114075076481e-06
4.39744936524888e-06
4.01556633819838e-06
3.43747891723762e-06
2.62844990908236e-06
1.58357295011099e-06
4.76959388956698e-09
1.83580679041119e-11
1.99772958708508e-11
5.23174822538553e-09
1.74160071956047e-06
2.89052542174141e-06
3.77953558332175e-06
4.41437416703888e-06
4.83329485222458e-06
5.08914493685034e-06
5.23405902377972e-06
5.3103803904483e-06
5.34787405038233e-06
5.36511511101874e-06
5.37256314645008e-06
5.37559654174913e-06
5.37676498672972e-06
5.37719166515771e-06
5.37733942072411e-06
5.37738768452539e-06
5.37740222443964e-06
5.377405874356e-06
5.37740624028199e-06
5.37740577958713e-06
5.37740518664315e-06
5.3774046509286e-06
5.37740422338309e-06
5.37740391746418e-06
5.37740373529107e-06
5.37740366290025e-06
5.37740361082239e-06
5.37740333013097e-06
5.37740197287131e-06
5.37739680504121e-06
5.37737939713616e-06
5.37732479937042e-06
5.37716262573221e-06
5.37670404263532e-06
5.37546918047714e-06
5.37230847441651e-06
5.36464047955256e-06
5.3470670953314e-06
5.30915885275824e-06
5.23247371743726e-06
5.08751906016725e-06
4.83232075252407e-06
4.41502974115942e-06
3.78269503504413e-06
2.89627482600444e-06
1.74847609678707e-06
5.27614772225108e-09
2.02820368054084e-11
2.16004472369238e-11
5.66083972640378e-09
1.88067570044651e-06
3.11494624199612e-06
4.06761320262087e-06
4.74694461056448e-06
5.19495256571052e-06
5.46856731474176e-06
5.62361478797938e-06
5.70533970120751e-06
5.74553204558003e-06
5.7640388040608e-06
5.77204605278304e-06
5.77531299050652e-06
5.77657395296804e-06
5.77703552731409e-06
5.77719587017895e-06
5.77724850386399e-06
5.77726452091949e-06
5.77726867390758e-06
5.77726921790469e-06
5.77726881347143e-06
5.77726824732607e-06
5.77726772265985e-06
5.77726729602845e-06
5.77726698175053e-06
5.77726678050689e-06
5.77726667432866e-06
5.77726657953102e-06
5.77726623072461e-06
5.77726472428881e-06
5.77725915893738e-06
5.77724056694284e-06
5.77718239618102e-06
5.77700966799668e-06
5.77652103800656e-06
5.77520441192848e-06
5.77183214874821e-06
5.7636458759891e-06
5.74487495899201e-06
5.70436654582848e-06
5.62239421407457e-06
5.46740034459717e-06
5.19443902676884e-06
4.74789104691686e-06
4.07069261831389e-06
3.12014839475594e-06
1.88676278324053e-06
5.70165912276098e-09
2.18911450134867e-11
2.29293107732093e-11
6.01347933643112e-09
1.99486311637236e-06
3.29872313483112e-06
4.30316096418643e-06
5.01865318921694e-06
5.49031833425514e-06
5.77840706629238e-06
5.94173241620055e-06
6.0278859983549e-06
6.07029872661757e-06
6.08985143356885e-06
6.09832305987113e-06
6.10178497799621e-06
6.1031236456607e-06
6.10361473372486e-06
6.10378581730816e-06
6.10384222929187e-06
6.10385955077451e-06
6.10386417095649e-06
6.10386489620576e-06
6.10386456742237e-06
6.1038640406331e-06
6.10386353738837e-06
6.10386311950638e-06
6.10386280230878e-06
6.10386258557529e-06
6.1038624494952e-06
6.10386231123074e-06
6.10386189153775e-06
6.10386024680281e-06
6.10385433978026e-06
6.10383477244367e-06
6.1037737064186e-06
6.10359246654453e-06
6.10307961291066e-06
6.10169698959098e-06
6.09815369485738e-06
6.08954779967088e-06
6.06980611331848e-06
6.02718799072479e-06
5.94092325642469e-06
5.77777641045093e-06
5.49038688030969e-06
5.0200691101487e-06
4.30640034790294e-06
3.3036577877291e-06
2.00040476684708e-06
6.05152555502672e-09
2.32080047396562e-11
2.39930330993375e-11
6.29693730263082e-09
2.08667588764711e-06
3.44622453997822e-06
4.49203187879655e-06
5.23642312541902e-06
5.72701854426e-06
6.02671419264012e-06
6.19669680475239e-06
6.28642443753627e-06
6.33063626269439e-06
6.35104026731305e-06
6.35989171823853e-06
6.36351397939615e-06
6.36491693277384e-06
6.36543260746565e-06
6.36561271739803e-06
6.36567234564998e-06
6.36569080132941e-06
6.36569584493389e-06
6.36569674876108e-06
6.36569650332489e-06
6.36569602334878e-06
6.36569554818682e-06
6.36569514446448e-06
6.36569482857518e-06
6.36569459979648e-06
6.365694437165e-06
6.36569425686059e-06
6.36569376933579e-06
6.365691999541e-06
6.36568580290374e-06
6.36566544341347e-06
6.36560206700889e-06
6.36541407212553e-06
6.36488200713244e-06
6.36344699005375e-06
6.35976772212057e-06
6.35082775827169e-06
6.33031234596503e-06
6.2860113401648e-06
6.19632083485642e-06
6.02666538364714e-06
5.72775649786444e-06
5.23845919762523e-06
4.49565952569097e-06
3.45118174035758e-06
2.09194178219295e-06
6.33320729946822e-09
2.42630082147816e-11
2.48258889750481e-11
6.51986884134326e-09
2.15898457357257e-06
3.56226789627965e-06
4.64054946418477e-06
5.40764403274104e-06
5.91313722203803e-06
6.22199013068417e-06
6.39724141100956e-06
6.48980799133475e-06
6.5354548145011e-06
6.55654095256975e-06
6.56569828022106e-06
6.56945037421317e-06
6.57090569556981e-06
6.5714415378388e-06
6.57162911605246e-06
6.57169143875275e-06
6.57171086590288e-06
6.57171628584536e-06
6.57171735620684e-06
6.57171719487891e-06
6.57171676498775e-06
6.57171632144282e-06
6.57171593522646e-06
6.5717156238059e-06
6.57171538621718e-06
6.57171520066096e-06
6.57171498183129e-06
6.57171443241913e-06
6.57171255257465e-06
6.57170611483008e-06
6.57168512201359e-06
6.57161993175767e-06
6.57142666538549e-06
6.570879622576e-06
6.56940372348992e-06
6.56561821758141e-06
6.556416902265e-06
6.53529553289046e-06
6.4896755183577e-06
6.39729865853762e-06
6.22253822174627e-06
5.91459359822261e-06
5.41040825829675e-06
4.6447523839481e-06
3.56750467324401e-06
2.16422693295996e-06
6.5553537069844e-09
2.50907780147003e-11
2.54639854478674e-11
6.69148064529941e-09
2.21477866866687e-06
3.65176921363649e-06
4.75508914525593e-06
5.53971302508181e-06
6.05673388621507e-06
6.372692505228e-06
6.55204585570405e-06
6.64683130559822e-06
6.69360452166675e-06
6.71522862046522e-06
6.72462841022977e-06
6.72848399070024e-06
6.7299813072753e-06
6.73053343457859e-06
6.73072709497279e-06
6.73079163853592e-06
6.73081188296908e-06
6.73081762871739e-06
6.73081885026566e-06
6.73081877054691e-06
6.73081839080034e-06
6.73081797994515e-06
6.73081761292325e-06
6.73081730823458e-06
6.73081706483302e-06
6.73081686027965e-06
6.73081660778971e-06
6.73081600413935e-06
6.7308140303052e-06
6.73080739590804e-06
6.73078590535964e-06
6.73071931524802e-06
6.73052200623953e-06
6.72996349062474e-06
6.7284562543909e-06
6.72458921368182e-06
6.71518707072252e-06
6.69359959328133e-06
6.64696421915666e-06
6.55251844551956e-06
6.37382544314117e-06
6.05891975580235e-06
5.54326448318838e-06
4.75999696171138e-06
3.6574837974013e-06
2.22020435332263e-06
6.72703468911035e-09
2.57271352610223e-11
2.59425926736419e-11
6.82084207683714e-09
2.25697052634135e-06
3.71945819928409e-06
4.84173936522492e-06
5.63966360699484e-06
6.16545353711798e-06
6.48683426962057e-06
6.66932902832997e-06
6.76582058342601e-06
6.81346375001289e-06
6.83550534558365e-06
6.84509428616536e-06
6.84903105340593e-06
6.85056151816076e-06
6.85112658896449e-06
6.85132512443508e-06
6.85139146885766e-06
6.85141238837799e-06
6.85141841053303e-06
6.85141976585741e-06
6.85141976200771e-06
6.85141943002567e-06
6.85141905112091e-06
6.85141870373362e-06
6.85141840731919e-06
6.85141816084048e-06
6.85141794136604e-06
6.85141766082183e-06
6.85141701149727e-06
6.85141495987813e-06
6.85140816865331e-06
6.85138629410123e-06
6.85131864276868e-06
6.85111828869865e-06
6.85055114253831e-06
6.84902031791482e-06
6.84509183127258e-06
6.83553816065117e-06
6.8135986437191e-06
6.76619582017358e-06
6.67018551414644e-06
6.48851788421934e-06
6.16834622605312e-06
5.64401358349478e-06
4.84742007449538e-06
3.7257797551833e-06
2.26272791646335e-06
6.85711351941448e-09
2.62066931285815e-11
2.62942056264805e-11
6.91637394451275e-09
2.2882501983478e-06
3.76966966042998e-06
4.90605477621877e-06
5.71389600237945e-06
6.24624340415751e-06
6.57169250754961e-06
6.75655336694204e-06
6.85433539158182e-06
6.90263960958398e-06
6.92500002835375e-06
6.934734185473e-06
6.9387336386851e-06
6.94028985662054e-06
6.9408650533226e-06
6.94106743458163e-06
6.94113521576195e-06
6.94115668344238e-06
6.94116293559185e-06
6.9411644061983e-06
6.94116447036671e-06
6.94116418220178e-06
6.94116383331378e-06
6.94116350513784e-06
6.94116321798731e-06
6.94116297088604e-06
6.94116274052357e-06
6.94116243778428e-06
6.9411617515955e-06
6.94115963772838e-06
6.94115272447342e-06
6.94113055948864e-06
6.94106211849718e-06
6.94085951265117e-06
6.94028599257551e-06
6.93873773671302e-06
6.93476379033339e-06
6.92509788171788e-06
6.90289734301984e-06
6.85492505330893e-06
6.7577532176708e-06
6.57387648763771e-06
6.24979340164418e-06
5.71901464833373e-06
4.91251962952808e-06
3.77666016916832e-06
2.29442790822926e-06
6.95378666167549e-09
2.656114384969e-11
2.65473455907709e-11
6.98552227619996e-09
2.31099301893909e-06
3.80621317652692e-06
4.95290384668715e-06
5.76801174977386e-06
6.3051797531446e-06
6.63363056299082e-06
6.82024422222571e-06
6.91898644426044e-06
6.96778487797263e-06
6.9903848754308e-06
7.00022875057039e-06
7.00427584175715e-06
7.00585175362566e-06
7.00643474790941e-06
7.00664011529822e-06
7.00670902442949e-06
7.00673092969046e-06
7.00673736953652e-06
7.00673893739163e-06
7.0067390610578e-06
7.00673881191329e-06
7.00673849043793e-06
7.00673818051895e-06
7.00673790322316e-06
7.00673765765663e-06
7.00673742023191e-06
7.00673710102164e-06
7.00673638648252e-06
7.00673422463214e-06
7.00672721900551e-06
7.006704839083e-06
7.00663582191657e-06
7.00643158224296e-06
7.00585344247207e-06
7.00429254411395e-06
7.0002855869956e-06
6.99053807689492e-06
6.9681475664429e-06
6.91976048111113e-06
6.8217420977907e-06
6.6362546932824e-06
6.30931900206409e-06
5.77383807014339e-06
4.96011813247582e-06
3.8138774750128e-06
2.31762682149538e-06
7.02429410727127e-09
2.68182273471731e-11
2.67260183994896e-11
7.03459975170971e-09
2.3272151636666e-06
3.83231372327585e-06
4.98640214326905e-06
5.8067431380113e-06
6.34739504695654e-06
6.67802370178656e-06
6.8659144963368e-06
6.96535956599169e-06
7.01452154506251e-06
7.03729870503835e-06
7.04722416740877e-06
7.05130689282411e-06
7.05289763001128e-06
7.05348653555541e-06
7.05369418548673e-06
7.05376396618439e-06
7.05378621496718e-06
7.05379280528588e-06
7.05379445393707e-06
7.05379462875486e-06
7.05379441335929e-06
7.05379411642606e-06
7.05379382354549e-06
7.05379355642041e-06
7.0537933142513e-06
7.05379307324887e-06
7.05379274287813e-06
7.05379200782032e-06
7.05378981059588e-06
7.05378273727701e-06
7.05376020216122e-06
7.05369077341582e-06
7.0534853716746e-06
7.05290394799437e-06
7.05133405422255e-06
7.04730357712989e-06
7.03749784853827e-06
7.01497164724706e-06
6.96628801519262e-06
6.86766399625211e-06
6.68102369744755e-06
6.35204536399228e-06
5.81319619877778e-06
4.99429874752626e-06
3.84061382317901e-06
2.33429951127052e-06
7.07478231636361e-09
2.70012933205058e-11
2.68496885848043e-11
7.06876139412083e-09
2.3385679824919e-06
3.8506095709778e-06
5.00991485242461e-06
5.83395944236761e-06
6.37708653154491e-06
6.70926891164406e-06
6.89807493464756e-06
6.99802610750751e-06
7.04745120941288e-06
7.07035729118169e-06
7.08034246573093e-06
7.08445142947687e-06
7.08605315369681e-06
7.08664647133348e-06
7.08685583916444e-06
7.08692628294758e-06
7.08694879719509e-06
7.08695550613271e-06
7.08695722155592e-06
7.08695744014523e-06
7.08695725257209e-06
7.08695697731415e-06
7.08695670018315e-06
7.08695644337235e-06
7.08695620617519e-06
7.08695596466313e-06
7.08695562785995e-06
7.08695487920063e-06
7.08695265739946e-06
7.08694553647943e-06
7.08692289261189e-06
7.0868531769275e-06
7.08664696656159e-06
7.08606325652354e-06
7.08448709014095e-06
7.08044018343674e-06
7.07059372079534e-06
7.04797244875805e-06
6.99908081092955e-06
6.90003160789362e-06
6.71258136127113e-06
6.38216717855081e-06
5.84094909053207e-06
5.01840802718173e-06
3.8594800150447e-06
2.34606906347604e-06
7.11028841005619e-09
2.71293226721872e-11
2.69336053629165e-11
7.09207460972574e-09
2.34635993193488e-06
3.86319089109559e-06
5.02610853582555e-06
5.852727844252e-06
6.39758289094438e-06
6.73085479326794e-06
6.9203056600502e-06
7.02061522545896e-06
7.07022765508835e-06
7.09322604046031e-06
7.10325422097477e-06
7.10738220034015e-06
7.10899194016835e-06
7.10958850015145e-06
7.10979914119079e-06
7.10987008186547e-06
7.10989279826237e-06
7.1098995991936e-06
7.10990136804247e-06
7.1099016225056e-06
7.10990146013845e-06
7.10990120400403e-06
7.10990094140043e-06
7.10990069494982e-06
7.10990046403336e-06
7.10990022463071e-06
7.10989988545918e-06
7.1098991291022e-06
7.1098968917176e-06
7.10988973923989e-06
7.10986702217849e-06
7.10979711251965e-06
7.10959035409781e-06
7.10900509010835e-06
7.10742464820421e-06
7.10336651308321e-06
7.09349214799115e-06
7.07080562926596e-06
7.02177101623318e-06
6.92242919094581e-06
6.73442094539943e-06
6.40301669201748e-06
5.86016380777422e-06
5.03510609902532e-06
3.87255285226148e-06
2.35422804571577e-06
7.1348091387123e-09
2.72172602607386e-11
2.69893322559404e-11
7.10764493030904e-09
2.35159512232457e-06
3.87166273214848e-06
5.03703228327421e-06
5.86540699166664e-06
6.41144559551727e-06
6.74546740229818e-06
6.93536439586567e-06
7.03592326199354e-06
7.08566674495736e-06
7.10873009300441e-06
7.11878873077585e-06
7.12293026570407e-06
7.12454575936655e-06
7.12514466452355e-06
7.1253562346721e-06
7.12542754219332e-06
7.1254504104405e-06
7.12545728206239e-06
7.12545909301491e-06
7.12545937748748e-06
7.12545923704894e-06
7.12545899782143e-06
7.12545874866237e-06
7.12545851256687e-06
7.12545828899923e-06
7.12545805388324e-06
7.12545771573349e-06
7.12545695657962e-06
7.125454710932e-06
7.1254475395236e-06
7.12542477622625e-06
7.12535474129262e-06
7.12514762491702e-06
7.12456133836978e-06
7.12297806664409e-06
7.11891246480302e-06
7.10901947379786e-06
7.08628926468029e-06
7.03715867063897e-06
6.93761999970468e-06
6.74923575098878e-06
6.41716337239846e-06
5.87320581909085e-06
5.04644530328779e-06
3.88143555604795e-06
2.35977507048783e-06
7.15141989430267e-09
2.72765224026403e-11
2.70253492576675e-11
7.11776507955968e-09
2.35501901768342e-06
3.87721820979947e-06
5.04421098931521e-06
5.8737539194592e-06
6.42058442556038e-06
6.75511080062665e-06
6.94530973660442e-06
7.04603837632735e-06
7.09587168172645e-06
7.11897985272824e-06
7.12905965151649e-06
7.13321067262641e-06
7.1348302234596e-06
7.13543079597e-06
7.13564303312113e-06
7.13571460741975e-06
7.135737588292e-06
7.13574451396586e-06
7.13574635818956e-06
7.13574666749822e-06
7.13574654600606e-06
7.13574632181233e-06
7.13574608517664e-06
7.13574585940593e-06
7.13574564403857e-06
7.13574541496952e-06
7.13574508059055e-06
7.13574432259727e-06
7.13574207453363e-06
7.13573489404026e-06
7.13571210492483e-06
7.13564199556703e-06
7.13543466001898e-06
7.13484773589103e-06
7.1332626770227e-06
7.12919231358959e-06
7.11928735368613e-06
7.09652889835719e-06
7.04733594858273e-06
6.94766888768469e-06
6.75903859941461e-06
6.42652783413016e-06
5.88184371808308e-06
5.05396071852156e-06
3.887327964353e-06
2.36345800041719e-06
7.16241460446988e-09
2.7315567737324e-11
2.70476395166751e-11
7.12406292277308e-09
2.35716401903616e-06
3.88071095934943e-06
5.04873731251174e-06
5.8790292573478e-06
6.42637107515579e-06
6.76122561271348e-06
6.95162241963059e-06
7.05246320039177e-06
7.1023563186773e-06
7.1254945868055e-06
7.13558871636481e-06
7.13974621829677e-06
7.14136856628968e-06
7.14197029969602e-06
7.14218300663949e-06
7.14225477178512e-06
7.14227783519179e-06
7.14228480204346e-06
7.14228667269965e-06
7.14228700263583e-06
7.14228689759151e-06
7.14228668688291e-06
7.14228646200062e-06
7.14228624650195e-06
7.14228603998361e-06
7.14228581833475e-06
7.14228548988159e-06
7.14228473616017e-06
7.14228249026931e-06
7.14227530836454e-06
7.14225250912367e-06
7.1421823638043e-06
7.1419749126356e-06
7.14138763514878e-06
7.1398015526048e-06
7.135728395366e-06
7.12581628340767e-06
7.10304070830602e-06
7.05380954072221e-06
6.95406308631639e-06
6.765279556309e-06
6.43249413327774e-06
5.88735253525586e-06
5.05875963946146e-06
3.89109617685481e-06
2.36581710940874e-06
7.16944458470514e-09
2.73404501761768e-11
2.70601974977261e-11
7.12763194052142e-09
2.35838988254187e-06
3.8827191806917e-06
5.05135284686059e-06
5.88209005238776e-06
6.4297393942229e-06
6.7647936783034e-06
6.95531242156963e-06
7.05622319845692e-06
7.10615412663539e-06
7.1293116659815e-06
7.13941509073879e-06
7.1435768509473e-06
7.14520106108842e-06
7.14580357811707e-06
7.14601660730477e-06
7.14608850620575e-06
7.1461116293976e-06
7.14611862767795e-06
7.14612051958551e-06
7.14612086682592e-06
7.14612077619801e-06
7.14612057769719e-06
7.14612036392222e-06
7.14612015860411e-06
7.14611996138314e-06
7.14611974815286e-06
7.1461194272281e-06
7.14611868012833e-06
7.14611643993789e-06
7.14610926264988e-06
7.14608646579831e-06
7.14601631520618e-06
7.14580883022566e-06
7.14522142091706e-06
7.14363490181791e-06
7.13956044571076e-06
7.12964480244344e-06
7.10686039570258e-06
7.05760885392221e-06
6.95781899612597e-06
6.76895003291143e-06
6.43600908651026e-06
5.89060514714339e-06
5.06160081245148e-06
3.89333433215293e-06
2.36722348620014e-06
7.17364133992246e-09
2.73553002604385e-11
2.70654288409749e-11
7.12913437950775e-09
2.35891584794718e-06
3.88359647526209e-06
5.05251238103243e-06
5.88346323116229e-06
6.43126478534468e-06
6.7664210242473e-06
6.95700393991523e-06
7.05795271035655e-06
7.10790476065635e-06
7.13107337571788e-06
7.14118229239828e-06
7.1453466375084e-06
7.14697200949983e-06
7.14757503052007e-06
7.1477882750926e-06
7.14786026853877e-06
7.14788343765897e-06
7.14789046278725e-06
7.14789237427424e-06
7.14789273803282e-06
7.14789266145875e-06
7.14789247494092e-06
7.14789227215187e-06
7.1478920769109e-06
7.14789188888079e-06
7.14789168396832e-06
7.14789137050585e-06
7.14789063012132e-06
7.14788839626981e-06
7.14788122598051e-06
7.14785843924083e-06
7.14778830676789e-06
7.14758085551787e-06
7.14699350094937e-06
7.14540703775303e-06
7.14133252134e-06
7.1314163038351e-06
7.10862974077323e-06
7.05937201659348e-06
6.95956706912542e-06
6.77066552830553e-06
6.43766121593941e-06
5.89214495494173e-06
5.06295748521516e-06
3.89441382556126e-06
2.36790967676392e-06
7.17571406519959e-09
2.73627034229102e-11
2.70644126325096e-11
7.12886963404988e-09
2.35884248652273e-06
3.88350682256616e-06
5.05242847353614e-06
5.88339664845066e-06
6.4312193155711e-06
6.76639537317611e-06
6.95699422444207e-06
7.0579543934991e-06
7.10791382759154e-06
7.13108683574159e-06
7.14119817336474e-06
7.14536376732074e-06
7.14698975016224e-06
7.14759306014561e-06
7.14780644146908e-06
7.14787850339541e-06
7.14790171154088e-06
7.14790876316893e-06
7.1479106955522e-06
7.14791107721532e-06
7.14791101573026e-06
7.14791084181443e-06
7.14791065028937e-06
7.14791046494016e-06
7.14791028543154e-06
7.14791008768569e-06
7.14790978008197e-06
7.14790904446584e-06
7.14790681506322e-06
7.14789965120182e-06
7.14787687905913e-06
7.14780678480362e-06
7.14759943139641e-06
7.14701231254948e-06
7.14542638056626e-06
7.14135298195191e-06
7.13143895423758e-06
7.10865636596958e-06
7.05940528270855e-06
6.95961045721327e-06
6.77072280909098e-06
6.43773528855068e-06
5.89223603748153e-06
5.06306083563591e-06
3.89451722670197e-06
2.36799081026657e-06
7.17601666913143e-09
2.73639594053281e-11
2.705704873751e-11
7.12681347474461e-09
2.35816355012103e-06
3.88244260379971e-06
5.05109406739543e-06
5.88188482724526e-06
6.42959949024335e-06
6.76471517028262e-06
6.95528334102243e-06
7.056229502901e-06
7.10618338337367e-06
7.12935457810711e-06
7.13946552783387e-06
7.14363116754627e-06
7.1452572723384e-06
7.14586068271971e-06
7.1460741321004e-06
7.14614623932117e-06
7.1461694797185e-06
7.14617655666535e-06
7.14617851038215e-06
7.14617891059458e-06
7.14617886437832e-06
7.14617870304153e-06
7.14617852270651e-06
7.14617834692089e-06
7.14617817533698e-06
7.14617798389779e-06
7.14617768107513e-06
7.14617694908645e-06
7.14617472342994e-06
7.14616756727058e-06
7.14614481744512e-06
7.14607478792817e-06
7.14586761031034e-06
7.14528093865393e-06
7.14369607898831e-06
7.13962511169649e-06
7.12971629926356e-06
7.10694428471929e-06
7.05771343263755e-06
6.95795507819903e-06
6.76912929269141e-06
6.4362404275774e-06
5.89088907968398e-06
5.06192242451327e-06
3.89365558965626e-06
2.36747505358195e-06
7.1745788831932e-09
2.73591905076234e-11
2.70420800541176e-11
7.12262217565846e-09
2.35676643262519e-06
3.88022487296659e-06
5.04828248316472e-06
5.87866883226815e-06
6.42612611839712e-06
6.76108948754632e-06
6.95157412975543e-06
7.05247792175738e-06
7.1024119758002e-06
7.12557462186829e-06
7.13568219047125e-06
7.13984661830069e-06
7.14147234354456e-06
7.14207566386843e-06
7.14228911223741e-06
7.14236124080203e-06
7.14238450552727e-06
7.14239160530117e-06
7.1423935795833e-06
7.1423939979238e-06
7.14239396651075e-06
7.1423938172991e-06
7.1423936477481e-06
7.14239348109424e-06
7.14239331696881e-06
7.1423931313583e-06
7.14239283289495e-06
7.14239210437895e-06
7.14238988324882e-06
7.14238273850866e-06
7.14236002339154e-06
7.14229009541866e-06
7.14208319602486e-06
7.141497242405e-06
7.13991413755805e-06
7.13584723954286e-06
7.12594737807387e-06
7.10319401123943e-06
7.05399987723687e-06
6.95430970830249e-06
6.76560311505669e-06
6.43291013594068e-06
5.88786133230319e-06
5.0593340774336e-06
3.89166826060945e-06
2.36626378161044e-06
7.17110989457166e-09
2.73473826118726e-11
2.70169310496342e-11
7.1155923717436e-09
2.35442106305972e-06
3.87648642291317e-06
5.04352577814481e-06