/*--------------------------------*- C++ -*----------------------------------*\
  =========                 |
  \\      /  F ield         | OpenFOAM: The Open Source CFD Toolbox
   \\    /   O peration     | Website:  https://openfoam.org
    \\  /    A nd           | Version:  10
     \\/     M anipulation  |
\*---------------------------------------------------------------------------*/
FoamFile
{
    format      ascii;
    class       volScalarField;
    location    "5.2";
    object      h;
}
// * * * * * * * * * * * * * * * * * * * * * * * * * * * * * * * * * * * * * //

dimensions      [0 2 -2 0 0 0 0];

internalField   nonuniform List<scalar> 
2500
(
6624.23750266662
6613.15651917309
6597.00067054455
6586.86052162729
6581.43433189657
6578.68816734982
6577.34836122477
6576.72005833324
6576.43882482047
6576.31994749624
6576.27087905669
6576.25160370508
6576.24424110682
6576.24085957702
6576.23902367958
6576.2375896813
6576.23686964233
6576.23607248973
6576.23519937184
6576.2345834391
6576.23405081471
6576.23358102533
6576.23318988355
6576.23295115443
6576.23270448387
6576.23248384015
6576.23239922194
6576.23235199441
6576.23236049632
6576.23244807067
6576.23260667016
6576.23290889926
6576.23329647232
6576.2337963027
6576.23439931828
6576.23527137866
6576.23683673191
6576.24005661811
6576.24858954413
6576.26950494644
6576.32148546122
6576.44660895375
6576.735040401
6577.36953993263
6578.70927896428
6581.43556931311
6586.83402529934
6597.00868395092
6613.33515366482
6624.10499881891
5470.52008377168
5424.34433417997
5378.51373323665
5349.70861266672
5333.61861748367
5325.05974776969
5320.66790261333
5318.50846888542
5317.49917116844
5317.05289628541
5316.86562789786
5316.79117613258
5316.76303402012
5316.75256593355
5316.7485942218
5316.74685884555
5316.74611966794
5316.74556953863
5316.74504031363
5316.74463696003
5316.74427098546
5316.74391992722
5316.7436162461
5316.74342219502
5316.74325226393
5316.74309469674
5316.74301978475
5316.7429661396
5316.74292028794
5316.74294792248
5316.74302116919
5316.74315807173
5316.74348429998
5316.74398907966
5316.74472503607
5316.74638004261
5316.75077850827
5316.7626203981
5316.79435977297
5316.87545652074
5317.07421323511
5317.53826244346
5318.56787270537
5320.73991599186
5325.11670355146
5333.61317782986
5349.63854274343
5378.5910648071
5425.02507759972
5470.27500619958
4357.4338321714
4286.54019718936
4225.59057572879
4188.2179880306
4167.48182266351
4156.47966397137
4150.83486290613
4148.05390915595
4146.7494511655
4146.16972056355
4145.92561198106
4145.82827105205
4145.79147507257
4145.77810801597
4145.77336205415
4145.77163336143
4145.7710121459
4145.77068188735
4145.77041139477
4145.77019795937
4145.7699865021
4145.76975813777
4145.76954714958
4145.76941141329
4145.76930910779
4145.76921055725
4145.76915982209
4145.76911558977
4145.76905618875
4145.76904298128
4145.76903769341
4145.76905286002
4145.7693143451
4145.76977866577
4145.77048649992
4145.77235914125
4145.77778108083
4145.79292321762
4145.83372637975
4145.93855140468
4146.19546520051
4146.79431761737
4148.12036509277
4150.9136048381
4156.5398051099
4167.47860321394
4188.18181217867
4225.86048580875
4287.8711114226
4358.55174967666
3441.87447325695
3366.6325413013
3309.65808466585
3276.0371976911
3258.01610213864
3248.75877618009
3244.13873068436
3241.91164307986
3240.88405734521
3240.43292892456
3240.24478571992
3240.17033966768
3240.14241555341
3240.13240742293
3240.12895491969
3240.12779753972
3240.12743817037
3240.12729244894
3240.12718942185
3240.12710428513
3240.12700470561
3240.12687553494
3240.12674289809
3240.1266568938
3240.12660302004
3240.12655009674
3240.12652197446
3240.12649305267
3240.12644478078
3240.12642329004
3240.1263976145
3240.12634214142
3240.12649497611
3240.12681120771
3240.12725263103
3240.12852583419
3240.13239368481
3240.14346910032
3240.17375876102
3240.25265935228
3240.44859215425
3240.91173679787
3241.95370367287
3244.19063232532
3248.80313670237
3258.03335200728
3276.09173592283
3310.13070296145
3368.39902206494
3444.61386951963
2782.00824296115
2718.28148706416
2674.62119990153
2649.83134372266
2637.00321966539
2630.62572155777
2627.52896160139
2626.0664866132
2625.4012233896
2625.11185468967
2624.99187525766
2624.94457671257
2624.92689827836
2624.92060558083
2624.91847680684
2624.91781458382
2624.9176477432
2624.91760623109
2624.91758600081
2624.91756736026
2624.91753472391
2624.91747429968
2624.9173993401
2624.91735016779
2624.91732740731
2624.91730543398
2624.91729302831
2624.91727718065
2624.91724672597
2624.91722721253
2624.91719662021
2624.91712569658
2624.91720016331
2624.91737297429
2624.91759803057
2624.91833610464
2624.92065876011
2624.92742167478
2624.94613283703
2624.99535117029
2625.11873956914
2625.41355101415
2626.0855758224
2627.55299984284
2630.64734124748
2637.0202852497
2649.91767263464
2675.12505407511
2720.05793701952
2785.55096799148
2357.1986332834
2311.39130794515
2282.52260033935
2266.72080437958
2258.81159785173
2254.99942841147
2253.1955199108
2252.35940203129
2251.98359444632
2251.82122032054
2251.75409539344
2251.72765538275
2251.71778075156
2251.71427836968
2251.71311371931
2251.71277992361
2251.71272190498
2251.71272536125
2251.71273098517
2251.71273306275
2251.71273189426
2251.71271239687
2251.71267423559
2251.71264919886
2251.71264343433
2251.71263814984
2251.71263404451
2251.71262650636
2251.71261050545
2251.7125962522
2251.71257046842
2251.71251251928
2251.71254088968
2251.71261662334
2251.71271001393
2251.71309455709
2251.71433754764
2251.71799098771
2251.72819245354
2251.75520410647
2251.82334709248
2251.98740806478
2252.36526010564
2253.20244437334
2255.00439659249
2258.81807963676
2266.78985079273
2282.92459876468
2312.84335480009
2360.57051313752
2109.28357637759
2080.35368931233
2063.38662048362
2054.41237308382
2050.05669045992
2048.01665714055
2047.07428381104
2046.64490489297
2046.45387417472
2046.37172455188
2046.33779382999
2046.32441295468
2046.31941033308
2046.31763991203
2046.31706177291
2046.31691385201
2046.31690221494
2046.31691406738
2046.31692684447
2046.31693187921
2046.31693655744
2046.31693494645
2046.31691779326
2046.31690703685
2046.31690876536
2046.31690887287
2046.3169076083
2046.3169052689
2046.31689782223
2046.31688876776
2046.31687103862
2046.31683287173
2046.31683957511
2046.316863235
2046.31689279775
2046.31707974693
2046.31768929647
2046.31948605845
2046.32454165424
2046.33798232598
2046.37200868092
2046.45433180271
2046.64540654102
2047.07401162192
2048.01386377174
2050.05418212357
2054.4504410804
2063.64795508332
2081.36254532829
2111.90786964538
1976.56603395595
1960.145588571
1951.10145192109
1946.46853857857
1944.28257697181
1943.28541664414
1942.83500711443
1942.63300724264
1942.54393182209
1942.50575085265
1942.4899708604
1942.48373184082
1942.4813941787
1942.4805683897
1942.48030547974
1942.48024585256
1942.48024679311
1942.48025765825
1942.48026832766
1942.4802741171
1942.48027755111
1942.48027845568
1942.48027294722
1942.48026983012
1942.48027308563
1942.48027463746
1942.48027432043
1942.4802732184
1942.48026997014
1942.48026480305
1942.48025432171
1942.48023368344
1942.48023183149
1942.48023429367
1942.48024166455
1942.48032652541
1942.48060350197
1942.48142255283
1942.48374179739
1942.48991953273
1942.50557668114
1942.54355073376
1942.63217230115
1942.83301939024
1943.28090837426
1944.27644442878
1946.48306590774
1951.24612498331
1960.75975101497
1978.32411385166
1910.75206803902
1902.23926709105
1897.80180118405
1895.59578921428
1894.58156966167
1894.12999037571
1893.93024319657
1893.84197710404
1893.80336125411
1893.78684552381
1893.78000824506
1893.77729549083
1893.77627613948
1893.77591676065
1893.77580548575
1893.77578340393
1893.77578654506
1893.77579371611
1893.77580047448
1893.77580462923
1893.77580660492
1893.77580735365
1893.77580645329
1893.77580663991
1893.7758088217
1893.77581018068
1893.77581003721
1893.7758094465
1893.77580811485
1893.77580537354
1893.77579987924
1893.77579014482
1893.7757880028
1893.77578742376
1893.77578777604
1893.77582145995
1893.77593871823
1893.77628913533
1893.77728648715
1893.77994347061
1893.78667119565
1893.80299335933
1893.84121493021
1893.92857318728
1894.12635620825
1894.57569319863
1895.59826671568
1897.87173826907
1902.57404839479
1911.7973104003
1880.2707634791
1876.19015181665
1874.16312507349
1873.18336591203
1872.74355514998
1872.55204001761
1872.46897058017
1872.43277309683
1872.41705099661
1872.41033671676
1872.40755053978
1872.40644061239
1872.40602219771
1872.40587503433
1872.40583094399
1872.40582345211
1872.4058256966
1872.40582966333
1872.4058333356
1872.40583576522
1872.40583708602
1872.40583775759
1872.40583785695
1872.40583839967
1872.40583956949
1872.40584033654
1872.40584030099
1872.40584003061
1872.40583942926
1872.40583808044
1872.40583544891
1872.40583111357
1872.40582956242
1872.40582865578
1872.40582789142
1872.40584044111
1872.40588722832
1872.40602932735
1872.40643514563
1872.40751476251
1872.41024113955
1872.41684523009
1872.43233406507
1872.46797464346
1872.54977028529
1872.73939653817
1873.18169290076
1874.19304572091
1876.35621168829
1880.83365817247
1866.993927736
1865.16782193532
1864.29794168715
1863.8884494531
1863.70865007341
1863.63194320745
1863.59927638297
1863.5852300872
1863.57917030285
1863.57658504281
1863.57550928642
1863.57507888143
1863.57491609374
1863.57485900656
1863.57484243901
1863.57484010072
1863.57484138884
1863.5748433431
1863.57484513575
1863.57484638629
1863.57484714662
1863.57484757615
1863.57484779738
1863.574848187
1863.57484873859
1863.5748490986
1863.5748490927
1863.57484897164
1863.57484870043
1863.574848076
1863.57484690381
1863.5748450628
1863.57484417331
1863.57484355253
1863.5748429946
1863.57484738989
1863.57486512635
1863.57492013682
1863.57507750557
1863.57549505342
1863.57654516131
1863.57908073187
1863.58502687709
1863.59878006791
1863.63072755035
1863.70618653364
1863.88629391576
1864.30930661704
1865.24370739069
1867.27258716264
1861.52270602821
1860.75382893943
1860.40056906521
1860.23834535798
1860.16856502739
1860.13935117521
1860.1271216153
1860.12192949333
1860.1197039174
1860.11875514178
1860.11835917674
1860.11820005628
1860.11813968026
1860.11811857631
1860.11811263572
1860.11811197678
1860.1181126174
1860.1181134986
1860.11811430318
1860.11811488769
1860.11811527207
1860.11811550555
1860.11811565753
1860.11811586395
1860.11811610144
1860.11811625281
1860.11811625109
1860.11811620001
1860.11811608132
1860.118115807
1860.11811531639
1860.118114572
1860.11811413238
1860.11811379917
1860.11811352206
1860.11811497291
1860.11812140197
1860.11814184409
1860.11820033324
1860.11835495613
1860.11874178771
1860.11967159522
1860.12184863702
1860.12690256453
1860.1387676676
1860.16727750427
1860.23681108307
1860.40436224017
1860.78608771478
1861.65094400486
1859.37868490433
1859.07212894389
1858.93556298806
1858.87428613206
1858.84842772857
1858.83778856498
1858.83340548939
1858.83156707132
1858.83078392168
1858.8304502702
1858.83031060647
1858.8302542393
1858.83023278573
1858.83022531602
1858.83022329135
1858.83022312549
1858.83022339397
1858.83022376253
1858.83022409885
1858.83022435096
1858.83022452605
1858.83022463846
1858.83022471787
1858.83022481175
1858.83022490685
1858.8302249656
1858.8302249642
1858.83022494292
1858.8302248931
1858.83022477982
1858.83022458565
1858.83022429895
1858.83022410338
1858.83022394676
1858.83022382314
1858.83022427597
1858.83022652545
1858.83023385
1858.83025478021
1858.83030986718
1858.83044684734
1858.83077425848
1858.83153866396
1858.83331723098
1858.83753119105
1858.84781655445
1858.87341537145
1858.93663340511
1859.08498432932
1859.4340300324
1858.57615635434
1858.4597906563
1858.40928629391
1858.3871081447
1858.37791466976
1858.37419224412
1858.3726813253
1858.37205485891
1858.37178959076
1858.37167664451
1858.3716292283
1858.37161001152
1858.37160267555
1858.37160013192
1858.37159946341
1858.37159942602
1858.37159953529
1858.37159967958
1858.37159981134
1858.37159991248
1858.37159998539
1858.37160003421
1858.37160006997
1858.37160010849
1858.37160014418
1858.37160016546
1858.37160016439
1858.37160015578
1858.37160013598
1858.37160009193
1858.37160001901
1858.37159991373
1858.37159983379
1858.3715997672
1858.37159971886
1858.37159985518
1858.37160061661
1858.3716031551
1858.37161039308
1858.37162934783
1858.37167616922
1858.37178736784
1858.37204596011
1858.37264820904
1858.37408617446
1858.37764619206
1858.38667667194
1858.40950946367
1858.46462319202
1858.59871702602
1858.28810830867
1858.24586188463
1858.22792194518
1858.22019901594
1858.21705040917
1858.21579421995
1858.21529129233
1858.21508502397
1858.21499818946
1858.21496123992
1858.21494568458
1858.21493935459
1858.21493693041
1858.2149360927
1858.21493587715
1858.21493586932
1858.21493591041
1858.21493596309
1858.21493601131
1858.21493604896
1858.21493607675
1858.21493609593
1858.21493611023
1858.21493612466
1858.21493613717
1858.2149361443
1858.2149361437
1858.21493614043
1858.21493613302
1858.21493611693
1858.21493609101
1858.21493605429
1858.21493602415
1858.21493599835
1858.21493598044
1858.21493602109
1858.2149362737
1858.21493712789
1858.21493955454
1858.21494587406
1858.21496137512
1858.21499793415
1858.21508254215
1858.21527953966
1858.21575287787
1858.21693982682
1858.22000487618
1858.22793137678
1858.24758421286
1858.29684574873
1858.18863125796
1858.17390440399
1858.16776250772
1858.16516616408
1858.16412385511
1858.1637136142
1858.16355142794
1858.16348558368
1858.16345801864
1858.16344629629
1858.16344134746
1858.16343932489
1858.16343854701
1858.16343827784
1858.1634382085
1858.16343820595
1858.16343821957
1858.16343823696
1858.16343825297
1858.16343826559
1858.16343827499
1858.16343828157
1858.1634382865
1858.16343829131
1858.16343829526
1858.16343829733
1858.16343829713
1858.16343829606
1858.16343829341
1858.16343828802
1858.1634382795
1858.16343826759
1858.16343825737
1858.16343824858
1858.16343824259
1858.16343825589
1858.16343833946
1858.16343861988
1858.16343941143
1858.16344145908
1858.16344644426
1858.16345811506
1858.16348497465
1858.16354742813
1858.16369823143
1858.16408073009
1858.16508510886
1858.16773916159
1858.17448878564
1858.19186209215
1858.15547686328
1858.15053078623
1858.14849828496
1858.14765314704
1858.1473186685
1858.14718865024
1858.1471378351
1858.14711739784
1858.14710888603
1858.14710526743
1858.14710373459
1858.14710310441
1858.14710285998
1858.1471027743
1858.14710275053
1858.14710274797
1858.14710275137
1858.14710275585
1858.14710276006
1858.14710276335
1858.14710276572
1858.14710276732
1858.14710276851
1858.1471027697
1858.14710277065
1858.14710277107
1858.14710277097
1858.14710277065
1858.14710276989
1858.14710276841
1858.14710276607
1858.14710276281
1858.1471027601
1858.14710275797
1858.14710275695
1858.1471027627
1858.14710279103
1858.14710288189
1858.14710313472
1858.1471037821
1858.14710534427
1858.1471089719
1858.14711726801
1858.14713651115
1858.14718314421
1858.14730262442
1858.14762131242
1858.14848095427
1858.15072017844
1858.15662227441
1858.14478438082
1858.14317918667
1858.14252744202
1858.14226041986
1858.14215611474
1858.14211602738
1858.14210052074
1858.14209433599
1858.14209177108
1858.14209067964
1858.1420902145
1858.14209002096
1858.14208994409
1858.14208991566
1858.14208990619
1858.1420899034
1858.14208990273
1858.14208990266
1858.1420899027
1858.14208990266
1858.14208990249
1858.14208990225
1858.14208990202
1858.14208990191
1858.14208990184
1858.14208990175
1858.14208990163
1858.14208990157
1858.14208990153
1858.14208990143
1858.14208990122
1858.14208990087
1858.14208990087
1858.14208990126
1858.1420899023
1858.14208990572
1858.14208991631
1858.14208994654
1858.14209002697
1858.14209022838
1858.14209070773
1858.14209180938
1858.14209430943
1858.14210008673
1858.14211411795
1858.14215038498
1858.14224854581
1858.14251856437
1858.14323796949
1858.14517511903
1858.14143959755
1858.14093490336
1858.14073197482
1858.1406499165
1858.14061823993
1858.14060618959
1858.14060156961
1858.14059973903
1858.14059898116
1858.14059865686
1858.14059851647
1858.1405984561
1858.14059843039
1858.14059841932
1858.14059841412
1858.14059841118
1858.14059840914
1858.14059840752
1858.14059840615
1858.14059840495
1858.1405984039
1858.14059840299
1858.14059840225
1858.14059840169
1858.14059840129
1858.14059840103
1858.14059840091
1858.14059840096
1858.14059840118
1858.14059840153
1858.14059840203
1858.14059840268
1858.14059840362
1858.14059840488
1858.14059840661
1858.14059840931
1858.14059841446
1858.14059842582
1858.14059845257
1858.14059851574
1858.14059866157
1858.14059899069
1858.14059972888
1858.14060142404
1858.14060554205
1858.14061626396
1858.14064567992
1858.1407281063
1858.1409524094
1858.14156825572
1858.14042256778
1858.1402684994
1858.14020705096
1858.14018248249
1858.14017309595
1858.14016955626
1858.14016820805
1858.14016767506
1858.14016745298
1858.14016735589
1858.14016731183
1858.14016729106
1858.14016728058
1858.14016727464
1858.14016727068
1858.14016726766
1858.14016726516
1858.14016726302
1858.14016726117
1858.14016725958
1858.14016725822
1858.14016725708
1858.14016725615
1858.14016725544
1858.14016725494
1858.14016725462
1858.14016725451
1858.1401672546
1858.1401672549
1858.14016725542
1858.14016725615
1858.14016725712
1858.14016725838
1858.14016725996
1858.14016726192
1858.14016726443
1858.14016726794
1858.14016727358
1858.14016728404
1858.14016730543
1858.14016735108
1858.14016744972
1858.14016766552
1858.14016815441
1858.14016933739
1858.14017243256
1858.14018102717
1858.14020552358
1858.14027350655
1858.14046356698
1858.14012140163
1858.14007566204
1858.14005755699
1858.14005038327
1858.14004766393
1858.14004664453
1858.14004625655
1858.14004610151
1858.14004603476
1858.14004600346
1858.14004598735
1858.14004597809
1858.14004597204
1858.14004596757
1858.14004596397
1858.1400459609
1858.14004595824
1858.14004595592
1858.14004595391
1858.14004595218
1858.14004595071
1858.14004594949
1858.14004594849
1858.14004594773
1858.14004594719
1858.14004594686
1858.14004594674
1858.14004594685
1858.14004594719
1858.14004594776
1858.14004594858
1858.14004594966
1858.14004595103
1858.14004595272
1858.14004595477
1858.14004595723
1858.14004596027
1858.14004596421
1858.14004596985
1858.14004597891
1858.14004599516
1858.14004602661
1858.14004609108
1858.1400462319
1858.14004656715
1858.14004744337
1858.14004989799
1858.1400569941
1858.14007703621
1858.14013407374
1858.14003439854
1858.14002118837
1858.14001601241
1858.14001397133
1858.14001319901
1858.14001290899
1858.14001279669
1858.14001274945
1858.14001272682
1858.1400127142
1858.14001270604
1858.14001270006
1858.14001269527
1858.14001269123
1858.14001268771
1858.14001268461
1858.14001268189
1858.14001267951
1858.14001267744
1858.14001267566
1858.14001267415
1858.14001267289
1858.14001267187
1858.14001267109
1858.14001267053
1858.1400126702
1858.14001267009
1858.1400126702
1858.14001267055
1858.14001267115
1858.140012672
1858.14001267312
1858.14001267454
1858.14001267627
1858.14001267835
1858.14001268082
1858.14001268372
1858.14001268717
1858.14001269141
1858.14001269691
1858.14001270471
1858.14001271698
1858.14001273853
1858.14001278111
1858.14001287711
1858.14001312309
1858.14001381166
1858.14001581473
1858.14002154778
1858.14003820258
1858.1400098403
1858.14000614309
1858.14000472861
1858.14000416679
1858.14000395047
1858.14000386705
1858.14000383232
1858.14000381523
1858.14000380492
1858.14000379753
1858.14000379159
1858.14000378654
1858.14000378211
1858.14000377818
1858.14000377468
1858.14000377158
1858.14000376883
1858.14000376642
1858.14000376433
1858.14000376253
1858.140003761
1858.14000375973
1858.1400037587
1858.14000375791
1858.14000375734
1858.14000375701
1858.1400037569
1858.14000375702
1858.14000375738
1858.14000375799
1858.14000375885
1858.14000375999
1858.14000376143
1858.14000376318
1858.14000376528
1858.14000376775
1858.14000377062
1858.14000377393
1858.14000377776
1858.14000378225
1858.14000378765
1858.14000379454
1858.14000380416
1858.14000381956
1858.14000384946
1858.14000392042
1858.14000411272
1858.14000466075
1858.14000623007
1858.14001094844
1858.14000305759
1858.14000207458
1858.14000172901
1858.14000158419
1858.14000152333
1858.14000149726
1858.14000148394
1858.14000147516
1858.14000146824
1858.14000146229
1858.14000145698
1858.14000145219
1858.14000144786
1858.14000144397
1858.14000144047
1858.14000143736
1858.14000143461
1858.1400014322
1858.14000143009
1858.14000142828
1858.14000142674
1858.14000142547
1858.14000142444
1858.14000142364
1858.14000142308
1858.14000142275
1858.14000142264
1858.14000142276
1858.14000142313
1858.14000142374
1858.14000142461
1858.14000142576
1858.14000142721
1858.14000142898
1858.14000143108
1858.14000143355
1858.14000143641
1858.14000143968
1858.1400014434
1858.14000144759
1858.14000145233
1858.14000145773
1858.14000146407
1858.14000147209
1858.14000148408
1858.14000150745
1858.14000156332
1858.14000170504
1858.14000209135
1858.14000336825
1858.14000122245
1858.14000099619
1858.14000094769
1858.14000091793
1858.14000089966
1858.1400008892
1858.14000088168
1858.14000087514
1858.14000086914
1858.14000086358
1858.14000085845
1858.14000085373
1858.14000084944
1858.14000084556
1858.14000084207
1858.14000083897
1858.14000083621
1858.1400008338
1858.14000083169
1858.14000082988
1858.14000082835
1858.14000082707
1858.14000082604
1858.14000082525
1858.14000082469
1858.14000082436
1858.14000082425
1858.14000082438
1858.14000082475
1858.14000082536
1858.14000082624
1858.1400008274
1858.14000082885
1858.14000083061
1858.14000083272
1858.14000083519
1858.14000083805
1858.14000084131
1858.14000084499
1858.14000084909
1858.14000085364
1858.14000085863
1858.14000086409
1858.14000087015
1858.14000087739
1858.1400008881
1858.14000090728
1858.14000093799
1858.1400009957
1858.14000130319
1858.14000073577
1858.14000071601
1858.14000074827
1858.14000074955
1858.14000074265
1858.14000073631
1858.14000073029
1858.14000072432
1858.14000071855
1858.14000071309
1858.14000070801
1858.14000070332
1858.14000069905
1858.14000069518
1858.1400006917
1858.1400006886
1858.14000068586
1858.14000068345
1858.14000068135
1858.14000067955
1858.14000067802
1858.14000067675
1858.14000067572
1858.14000067493
1858.14000067438
1858.14000067405
1858.14000067395
1858.14000067408
1858.14000067445
1858.14000067507
1858.14000067595
1858.1400006771
1858.14000067855
1858.14000068032
1858.14000068242
1858.14000068489
1858.14000068774
1858.14000069099
1858.14000069465
1858.14000069874
1858.14000070323
1858.14000070812
1858.14000071336
1858.14000071893
1858.14000072498
1858.14000073244
1858.14000074201
1858.14000074312
1858.14000071156
1858.14000075186
1858.14000060956
1858.14000064502
1858.14000069866
1858.140000708
1858.14000070396
1858.14000069861
1858.14000069291
1858.14000068704
1858.1400006813
1858.14000067585
1858.14000067077
1858.14000066609
1858.14000066183
1858.14000065797
1858.14000065451
1858.14000065143
1858.1400006487
1858.1400006463
1858.14000064422
1858.14000064243
1858.14000064091
1858.14000063965
1858.14000063863
1858.14000063785
1858.1400006373
1858.14000063698
1858.14000063688
1858.14000063701
1858.14000063738
1858.140000638
1858.14000063888
1858.14000064003
1858.14000064147
1858.14000064323
1858.14000064533
1858.14000064779
1858.14000065063
1858.14000065387
1858.14000065753
1858.14000066161
1858.1400006661
1858.14000067099
1858.14000067621
1858.14000068171
1858.14000068752
1858.14000069425
1858.14000070148
1858.140000695
1858.14000063982
1858.14000060796
1858.14000057809
1858.14000062807
1858.14000068705
1858.14000069823
1858.14000069473
1858.14000068947
1858.14000068374
1858.14000067781
1858.14000067202
1858.14000066655
1858.14000066146
1858.14000065678
1858.14000065253
1858.14000064869
1858.14000064525
1858.14000064219
1858.14000063948
1858.14000063711
1858.14000063504
1858.14000063327
1858.14000063177
1858.14000063052
1858.14000062952
1858.14000062875
1858.1400006282
1858.14000062789
1858.14000062779
1858.14000062793
1858.1400006283
1858.14000062891
1858.14000062978
1858.14000063093
1858.14000063237
1858.14000063411
1858.1400006362
1858.14000063865
1858.14000064148
1858.14000064471
1858.14000064837
1858.14000065245
1858.14000065696
1858.14000066187
1858.14000066714
1858.1400006727
1858.14000067858
1858.14000068529
1858.14000069213
1858.14000068397
1858.14000062287
1858.14000057186
1858.1400005713
1858.14000062503
1858.14000068504
1858.14000069634
1858.14000069269
1858.14000068724
1858.14000068135
1858.1400006753
1858.14000066943
1858.1400006639
1858.14000065879
1858.14000065411
1858.14000064987
1858.14000064605
1858.14000064264
1858.14000063961
1858.14000063693
1858.14000063458
1858.14000063255
1858.1400006308
1858.14000062932
1858.14000062809
1858.1400006271
1858.14000062634
1858.14000062581
1858.1400006255
1858.14000062541
1858.14000062555
1858.14000062592
1858.14000062653
1858.14000062739
1858.14000062853
1858.14000062995
1858.14000063168
1858.14000063375
1858.14000063618
1858.140000639
1858.14000064222
1858.14000064587
1858.14000064996
1858.1400006545
1858.14000065946
1858.14000066483
1858.14000067052
1858.14000067657
1858.14000068349
1858.14000069052
1858.14000068229
1858.14000062002
1858.14000056399
1858.14000057105
1858.14000062575
1858.14000068558
1858.14000069644
1858.14000069239
1858.14000068662
1858.14000068049
1858.14000067427
1858.14000066828
1858.14000066269
1858.14000065755
1858.14000065287
1858.14000064865
1858.14000064486
1858.14000064147
1858.14000063848
1858.14000063584
1858.14000063353
1858.14000063152
1858.1400006298
1858.14000062835
1858.14000062714
1858.14000062618
1858.14000062543
1858.14000062492
1858.14000062461
1858.14000062453
1858.14000062467
1858.14000062503
1858.14000062564
1858.14000062649
1858.14000062761
1858.14000062902
1858.14000063073
1858.14000063278
1858.14000063519
1858.14000063798
1858.14000064119
1858.14000064483
1858.14000064893
1858.14000065351
1858.14000065854
1858.14000066402
1858.14000066989
1858.14000067619
1858.14000068343
1858.14000069088
1858.14000068311
1858.14000062098
1858.14000056364
1858.14000057277
1858.14000062773
1858.14000068695
1858.14000069711
1858.14000069251
1858.14000068632
1858.14000067988
1858.14000067345
1858.14000066733
1858.14000066166
1858.14000065649
1858.14000065181
1858.1400006476
1858.14000064384
1858.1400006405
1858.14000063755
1858.14000063495
1858.14000063269
1858.14000063072
1858.14000062904
1858.14000062761
1858.14000062644
1858.14000062549
1858.14000062477
1858.14000062426
1858.14000062397
1858.14000062389
1858.14000062403
1858.14000062439
1858.14000062499
1858.14000062583
1858.14000062693
1858.14000062832
1858.14000063001
1858.14000063203
1858.1400006344
1858.14000063717
1858.14000064036
1858.140000644
1858.14000064811
1858.14000065272
1858.14000065785
1858.14000066347
1858.14000066955
1858.14000067616
1858.14000068382
1858.14000069183
1858.14000068476
1858.14000062322
1858.14000056552
1858.14000057538
1858.1400006304
1858.14000068875
1858.14000069802
1858.14000069271
1858.14000068601
1858.14000067921
1858.14000067253
1858.14000066625
1858.1400006605
1858.14000065529
1858.14000065062
1858.14000064644
1858.14000064272
1858.14000063943
1858.14000063653
1858.14000063398
1858.14000063177
1858.14000062985
1858.1400006282
1858.14000062682
1858.14000062567
1858.14000062476
1858.14000062406
1858.14000062357
1858.14000062328
1858.14000062321
1858.14000062335
1858.14000062371
1858.14000062429
1858.14000062511
1858.14000062619
1858.14000062755
1858.14000062921
1858.1400006312
1858.14000063354
1858.14000063628
1858.14000063944
1858.14000064307
1858.14000064719
1858.14000065185
1858.14000065706
1858.14000066284
1858.14000066918
1858.14000067615
1858.14000068433
1858.14000069304
1858.14000068687
1858.14000062617
1858.14000056836
1858.14000057866
1858.14000063367
1858.14000069092
1858.14000069908
1858.14000069292
1858.14000068561
1858.14000067838
1858.14000067142
1858.14000066497
1858.14000065913
1858.14000065389
1858.14000064923
1858.14000064508
1858.14000064142
1858.14000063819
1858.14000063535
1858.14000063286
1858.1400006307
1858.14000062884
1858.14000062724
1858.1400006259
1858.14000062479
1858.1400006239
1858.14000062323
1858.14000062276
1858.14000062249
1858.14000062242
1858.14000062256
1858.14000062291
1858.14000062348
1858.14000062428
1858.14000062534
1858.14000062666
1858.14000062829
1858.14000063023
1858.14000063254
1858.14000063523
1858.14000063836
1858.14000064197
1858.14000064609
1858.14000065079
1858.14000065611
1858.14000066207
1858.14000066869
1858.14000067609
1858.14000068488
1858.14000069444
1858.14000068938
1858.14000062975
1858.14000057193
1858.14000058268
1858.14000063761
1858.14000069348
1858.14000070027
1858.1400006931
1858.14000068508
1858.14000067737
1858.1400006701
1858.14000066347
1858.14000065754
1858.14000065228
1858.14000064763
1858.14000064353
1858.14000063993
1858.14000063676
1858.14000063399
1858.14000063158
1858.14000062949
1858.14000062768
1858.14000062614
1858.14000062485
1858.14000062378
1858.14000062292
1858.14000062227
1858.14000062182
1858.14000062157
1858.1400006215
1858.14000062164
1858.14000062198
1858.14000062254
1858.14000062332
1858.14000062435
1858.14000062564
1858.14000062722
1858.14000062912
1858.14000063137
1858.14000063402
1858.14000063711
1858.14000064068
1858.14000064481
1858.14000064954
1858.14000065495
1858.1400006611
1858.14000066803
1858.14000067592
1858.14000068542
1858.14000069601
1858.1400006923
1858.14000063402
1858.14000057624
1858.14000058756
1858.14000064232
1858.14000069647
1858.1400007016
1858.14000069321
1858.14000068438
1858.14000067613
1858.14000066853
1858.14000066171
1858.1400006557
1858.14000065043
1858.14000064581
1858.14000064178
1858.14000063825
1858.14000063516
1858.14000063248
1858.14000063014
1858.14000062812
1858.14000062639
1858.14000062491
1858.14000062366
1858.14000062264
1858.14000062182
1858.1400006212
1858.14000062077
1858.14000062053
1858.14000062047
1858.14000062061
1858.14000062094
1858.14000062148
1858.14000062224
1858.14000062323
1858.14000062448
1858.14000062601
1858.14000062786
1858.14000063006