/*--------------------------------*- C++ -*----------------------------------*\
  =========                 |
  \\      /  F ield         | OpenFOAM: The Open Source CFD Toolbox
   \\    /   O peration     | Website:  https://openfoam.org
    \\  /    A nd           | Version:  10
     \\/     M anipulation  |
\*---------------------------------------------------------------------------*/
FoamFile
{
    format      ascii;
    class       volScalarField;
    location    "5.2";
    object      k;
}
// * * * * * * * * * * * * * * * * * * * * * * * * * * * * * * * * * * * * * //

dimensions      [0 2 -2 0 0 0 0];

internalField   nonuniform List<scalar> 
2500
(
1.32070833000942e-09
2.5776414500389e-08
1.09110103073249e-07
1.85909318716544e-07
2.47604647801667e-07
2.9250081552869e-07
3.22271599623031e-07
3.40343350896227e-07
3.50434318023824e-07
3.55642994331534e-07
3.58140440172274e-07
3.59257987782395e-07
3.5972672823056e-07
3.59911733964346e-07
3.59980657164105e-07
3.60004927769736e-07
3.60012981852612e-07
3.60015459278821e-07
3.60016120807087e-07
3.60016228869913e-07
3.60016185936205e-07
3.6001611268678e-07
3.60016044293658e-07
3.60015988135218e-07
3.60015946366799e-07
3.60015920323824e-07
3.60015912610283e-07
3.60015916059347e-07
3.60015918679426e-07
3.6001592059614e-07
3.60015863592163e-07
3.60015558345697e-07
3.60014456409006e-07
3.60010920137735e-07
3.6000030129242e-07
3.59970067916814e-07
3.59888164269045e-07
3.59677156859808e-07
3.59161396179658e-07
3.57969251646813e-07
3.55373489377388e-07
3.50072062496915e-07
3.39963252449068e-07
3.22054792293653e-07
2.92727316894423e-07
2.48552102059995e-07
1.87637768229208e-07
1.11158653039506e-07
2.67081415479133e-08
1.40117185730841e-09
3.23888048977944e-08
7.37015693609238e-07
3.18549257407256e-06
5.43410708736032e-06
7.24700369650719e-06
8.5734114446345e-06
9.45881527727079e-06
1.00003747006948e-05
1.0305287498026e-05
1.0464059057017e-05
1.05408784547095e-05
1.05755710186526e-05
1.05902574274032e-05
1.05961076171444e-05
1.0598307209218e-05
1.0599089028566e-05
1.05993511005968e-05
1.05994327758134e-05
1.05994551462055e-05
1.05994592281693e-05
1.05994582231359e-05
1.05994561210117e-05
1.05994541177455e-05
1.05994524654299e-05
1.0599451237414e-05
1.05994504763788e-05
1.05994502577265e-05
1.05994503567146e-05
1.05994504154083e-05
1.05994503942698e-05
1.0599448327151e-05
1.05994380463611e-05
1.05994018454506e-05
1.05992869275198e-05
1.059894485678e-05
1.05979787462437e-05
1.05953821680476e-05
1.05887459027002e-05
1.0572656104005e-05
1.05357698229648e-05
1.04561141767061e-05
1.02947590282882e-05
9.98954612523361e-06
9.45298882795683e-06
8.58058468218092e-06
7.27489555979857e-06
5.4840744904733e-06
3.24412938805307e-06
7.62965453556814e-07
3.42720018463423e-08
1.13902330540209e-07
3.28181454260166e-06
1.60132897888954e-05
2.72236144074352e-05
3.61924654080397e-05
4.27358103580726e-05
4.71046871396726e-05
4.97841734138579e-05
5.12996684255981e-05
5.20934021333308e-05
5.24799944377808e-05
5.26558354968199e-05
5.27308311433257e-05
5.27609344697936e-05
5.27723419921353e-05
5.27764299227322e-05
5.27778127247642e-05
5.27782488949545e-05
5.27783711477187e-05
5.27783955114757e-05
5.2778392130191e-05
5.27783824980816e-05
5.27783730122123e-05
5.27783651206637e-05
5.27783592346585e-05
5.27783555737985e-05
5.27783544986416e-05
5.27783548543796e-05
5.27783550053695e-05
5.27783544205543e-05
5.27783425959648e-05
5.27782875384203e-05
5.27780973047227e-05
5.2777498325785e-05
5.27757262628506e-05
5.27707484792981e-05
5.27574399423777e-05
5.27236053282887e-05
5.26420101648119e-05
5.24559575380408e-05
5.20563192640324e-05
5.12509188239875e-05
4.97344509135602e-05
4.7078306549634e-05
4.27690806673109e-05
3.63202879059982e-05
2.74521017817002e-05
1.62813743231134e-05
3.38552492887997e-06
1.19413183821793e-07
1.99979011671225e-07
5.80218024964896e-06
2.83321980116038e-05
4.78989002168798e-05
6.34186994053965e-05
7.46764677144109e-05
8.21680066616555e-05
8.67561723320222e-05
8.93512862672509e-05
9.07119130802293e-05
9.13757969906411e-05
9.16784570918458e-05
9.1807886317772e-05
9.18599948226449e-05
9.18798062146225e-05
9.18869318225795e-05
9.18893526904043e-05
9.18901209698716e-05
9.18903388851269e-05
9.18903840740383e-05
9.1890379770293e-05
9.18903643587256e-05
9.18903487247529e-05
9.18903356180303e-05
9.18903257838163e-05
9.18903195864885e-05
9.18903176182767e-05
9.18903179264894e-05
9.18903182983829e-05
9.18903170737435e-05
9.18902964730899e-05
9.18902030530987e-05
9.18898806414357e-05
9.18888645982989e-05
9.18858545054937e-05
9.18773865258396e-05
9.18547147430807e-05
9.17970034495701e-05
9.16576793396758e-05
9.13397146122072e-05
9.06562293014017e-05
8.92778302570675e-05
8.6680300943176e-05
8.21248192857695e-05
7.47184499050871e-05
6.35963623546444e-05
4.82209339652866e-05
2.87096501149867e-05
5.94645881809052e-06
2.07538470969097e-07
2.82703565923138e-07
8.20771436901877e-06
3.99048734258829e-05
6.7132863512066e-05
8.85783261410085e-05
0.000104062404288214
0.000114339014318003
0.000120626002448729
0.000124182257257783
0.000126048537350458
0.000126960542655582
0.000127377148947388
0.000127555725957761
0.000127627813758285
0.000127655303312916
0.000127665224299128
0.000127668608926908
0.000127669689574652
0.000127669999892227
0.000127670066853517
0.000127670063290994
0.000127670043823312
0.000127670023454431
0.000127670006215246
0.000127669993174927
0.000127669984789676
0.000127669981705052
0.000127669981792112
0.000127669982530852
0.000127669980158827
0.000127669951202884
0.000127669824330775
0.000127669387330074
0.000127668009513236
0.00012766392234443
0.000127652406702115
0.000127621528147734
0.00012754281568007
0.000127352555589135
0.000126917883581849
0.000125982678758465
0.000124095068119059
0.000120534793739101
0.000114283548284955
0.000104102111628751
8.87702846067373e-05
6.74867670437908e-05
4.03212720453441e-05
8.36881972556513e-06
2.91288476738325e-07
3.59418119419021e-07
1.04389337090306e-05
5.05261487548679e-05
8.46379610245273e-05
0.000111349031813164
0.00013056255563059
0.000143287880331498
0.000151066916720339
0.000155468038162415
0.000157779808648855
0.000158911144688069
0.000159428897166922
0.000159651314442963
0.000159741322759174
0.000159775742316899
0.000159788204551688
0.000159792473302951
0.000159793844448589
0.000159794243175671
0.000159794332724181
0.000159794331718022
0.000159794309897833
0.000159794286259947
0.000159794266018912
0.000159794250550047
0.000159794240347763
0.000159794235852071
0.00015979423567475
0.000159794237038541
0.000159794232725929
0.000159794195404138
0.000159794039194001
0.000159793503046043
0.000159791813229906
0.000159786796188143
0.000159772642709197
0.000159734640239367
0.000159637646242477
0.000159402934561877
0.000158866193330418
0.000157710445450177
0.000155376006949807
0.000150969693268359
0.000143225659008661
0.000130595219787602
0.000111533816999117
8.49845862564284e-05
5.09372159389421e-05
1.06021814856087e-05
3.68378443014185e-07
4.28658554086727e-07
1.24561541729339e-05
6.00551647345513e-05
0.000100232389657144
0.000131541647776003
0.00015399475600777
0.000168841972204857
0.000177913531838021
0.00018304749412077
0.000185746654865224
0.000187069372996007
0.00018767575267285
0.000187936769817168
0.000188042642588146
0.000188083234796057
0.000188097976789002
0.00018810304595095
0.000188104683776139
0.000188105165998339
0.000188105278630836
0.000188105281893043
0.000188105259359052
0.000188105233853294
0.000188105211695716
0.00018810519455304
0.000188105182941729
0.000188105177118237
0.000188105176497201
0.000188105177311065
0.000188105170555508
0.000188105125504618
0.000188104943608668
0.000188104322201337
0.000188102365812808
0.000188096554613762
0.000188080144300663
0.000188036032103703
0.000187923320935152
0.000187650308961335
0.000187025460114065
0.000185679051159006
0.000182957860385552
0.000177818473820895
0.000168779428329971
0.000154020798876196
0.000131709340998482
0.000100550540289684
6.04357806831032e-05
1.26128452524579e-05
4.37581805166302e-07
4.89602639634975e-07
1.42358703046458e-05
6.84150274800596e-05
0.000113834360892913
0.000149089728561842
0.000174312358531149
0.00019097096747405
0.000201146295933168
0.000206907136166136
0.000209938574902698
0.000211426027901054
0.000212109015474874
0.000212403557882569
0.000212523283679602
0.000212569298647689
0.000212586057669287
0.000212591841467521
0.00021259372073689
0.000212594280653483
0.000212594416405628
0.00021259442540727
0.000212594403591074
0.000212594377459285
0.000212594354352484
0.000212594336217164
0.00021259432359829
0.000212594316664242
0.000212594314987495
0.000212594314555809
0.000212594305131474
0.000212594252843434
0.000212594048367304
0.000212593354250223
0.0002125911726197
0.000212584691540841
0.000212566375407849
0.000212517093227821
0.000212391053627363
0.000212085498632675
0.000211385663831138
0.000209876779912601
0.000206825690450397
0.000201060505725348
0.000190915072378225
0.000174336155543919
0.000149239426653682
0.000114116802036577
6.87545886852608e-05
1.43816905224333e-05
4.98251518093746e-07
5.41955529821136e-07
1.57690939735591e-05
7.55889309999512e-05
0.0001254527087704
0.000164035846817011
0.000191587939454029
0.000209769208253415
0.000220873195484479
0.000227162531231729
0.000230474916999025
0.000232102162430947
0.00023285043454795
0.000233173683870209
0.000233305335178451
0.000233356046484479
0.000233374564646845
0.000233380977365437
0.000233383072065392
0.000233383703120122
0.000233383861535903
0.000233383877420409
0.000233383857426984
0.000233383831691282
0.000233383808441066
0.000233383789888566
0.000233383776613485
0.000233383768706746
0.000233383765563957
0.000233383763301619
0.00023338375111508
0.000233383692200325
0.000233383467897095
0.000233382712376251
0.000233380342787121
0.000233373304317615
0.000233353401484123
0.000233299807626844
0.000233162630912287
0.00023282983513451
0.00023206713981245
0.00023042190098139
0.000227093727057168
0.000220802629942761
0.000209726929151806
0.000191616387357053
0.000164172963963764
0.000125702242749587
7.58873712519613e-05
1.59029545225534e-05
5.50226533164673e-07
5.85870807087999e-07
1.70594766060842e-05
8.161226031664e-05
0.00013517277348658
0.000176513143520202
0.000205992312574329
0.000225433366199391
0.000237306736929812
0.000244034947184693
0.000247581362362372
0.000249325491475195
0.000250128584388147
0.000250476055639879
0.000250617823091921
0.000250672542073185
0.000250692571928848
0.000250699529958857
0.00025070181398701
0.000250702509047977
0.000250702689269538
0.000250702712878266
0.000250702695329084
0.000250702670761505
0.000250702647994637
0.000250702629482999
0.000250702615846233
0.000250702607113216
0.000250702602505142
0.000250702598390372
0.000250702583251732
0.000250702517876008
0.000250702276362129
0.000250701469565955
0.00025069894526316
0.000250691449778625
0.000250670245860444
0.0002506131113791
0.000250466773354708
0.00025011153339225
0.000249296977356224
0.000247539132442515
0.00024398198043974
0.00023725609593929
0.000225411079843826
0.000206033379805825
0.000176646769182261
0.000135398518869025
8.18764266284502e-05
1.71825086602413e-05
5.93757646357432e-07
6.21858915972849e-07
1.81208645709406e-05
8.65617796914555e-05
0.00014313892859631
0.000186723495652358
0.000217770145633088
0.000238236658105003
0.000250737421127771
0.000257824446435951
0.000261562829689197
0.000263403206545291
0.000264251639440799
0.000264619241084672
0.000264769460993666
0.000264827548608918
0.000264848857963025
0.000264856281646735
0.000264858729486391
0.000264859481105567
0.000264859681587267
0.000264859713058667
0.000264859698792759
0.000264859675934586
0.000264859654098355
0.000264859635966478
0.000264859622203175
0.00026485961279858
0.000264859606893505
0.000264859600893382
0.000264859582680853
0.000264859511310179
0.000264859254988582
0.000264858405918503
0.000264855756132316
0.000264847891746685
0.000264825637941626
0.000264765642998738
0.000264611891981447
0.000264238464114786
0.0002633818309775
0.000261532541578769
0.000257789335112189
0.000250710055284569
0.000238239631678712
0.000217831583725796
0.000186864056487312
0.000143353052101501
8.68022514232262e-05
1.82355212559932e-05
6.2941845503645e-07
6.50684208164601e-07
1.89744745008526e-05
9.05434126198115e-05
0.000149535726353905
0.000194914443587599
0.00022721439417872
0.000248501870874814
0.000261505998088402
0.000268881733402905
0.000272775115886052
0.000274693516610135
0.000275578869315082
0.00027596294373956
0.000276120117737214
0.000276180993470914
0.000276203369181758
0.000276211184357957
0.000276213771697285
0.000276214572511663
0.00027621479136043
0.000276214830579177
0.000276214819929798
0.000276214799103313
0.000276214778485818
0.000276214760968226
0.00027621474726165
0.000276214737334622
0.000276214730277706
0.000276214722453817
0.000276214701299001
0.000276214624504633
0.000276214355624063
0.000276213472201733
0.000276210722226701
0.000276202564914074
0.000276179478010757
0.00027611721099737
0.000275957563409516
0.000275569648304969
0.000274679461485297
0.000272757191095016
0.000268865419581674
0.000261503880068742
0.00024853389116114
0.000227302740800994
0.000195071849701644
0.00014975082356888
9.0771908493613e-05
1.90837704690829e-05
6.58006416291001e-07
6.73261471342071e-07
1.96460126399712e-05
9.36800680530217e-05
0.00015456959132713
0.000201357037703933
0.000234641848966997
0.000256575581197742
0.000269976943636318
0.000277581230216646
0.000281597764782696
0.000283578415317277
0.000284493358973524
0.000284890702428808
0.000285053508661221
0.00028511665617129
0.000285139906779473
0.000285148045943031
0.000285150750173629
0.000285151593133222
0.00028515182830913
0.00028515187475322
0.000285151867753238
0.000285151849100027
0.000285151829854394
0.000285151813096294
0.000285151799583571
0.000285151789274354
0.00028515178122283
0.00028515177172749
0.000285151747887802
0.000285151666319479
0.000285151386980186
0.000285150476085291
0.00028514764742955
0.000285139261452597
0.000285115524844795
0.000285051484451547
0.000284887228450009
0.000284487976335012
0.000283571503962804
0.000281592016670408
0.000277583714211693
0.00027000072567723
0.000256638774331007
0.000234761790445287
0.000201539404830999
0.000154796818281559
9.39075388878916e-05
1.97529391938721e-05
6.8044533453288e-07
6.90562573055464e-07
2.01630413466906e-05
9.61006871650128e-05
0.000158452618360287
0.000206326368274572
0.000240371695796667
0.000262805559426616
0.000276515204958755
0.000284297461083168
0.000288410262173079
0.000290439781846676
0.000291378065288544
0.000291785928164878
0.000291953224262801
0.000292018193785448
0.000292042150942212
0.000292050553990772
0.000292053354577505
0.000292054232996623
0.000292054482308468
0.000292054535312321
0.000292054531853318
0.000292054515375888
0.00029205449754864
0.000292054481623339
0.000292054468402689
0.000292054457841281
0.000292054448965507
0.000292054438009713
0.000292054411816796
0.000292054326170672
0.000292054038299675
0.000292053105810821
0.000292050216423096
0.000292041655058855
0.000292017420709274
0.000291952020766385
0.00029178422740129
0.00029137626241807
0.00029043956799975
0.000288416029375079
0.000284317967051942
0.000276564363841856
0.000262900405647682
0.000240525795667601
0.000206539321209588
0.000158700577375317
9.63361112938229e-05
2.02701748860802e-05
6.9769908641647e-07
7.03540698669222e-07
2.05528102205116e-05
9.79313058876695e-05
0.000161389515604208
0.000210085962158779
0.00024470836942597
0.000267522707370923
0.000281467608709247
0.000289386164991062
0.000293572991054834
0.000295640256442623
0.000296596654410139
0.000297012724257138
0.000297183542934381
0.000297249950712595
0.000297274469471802
0.000297283084044351
0.000297285962768489
0.00029728687047901
0.000297287131783939
0.00029728719059228
0.000297287190425227
0.000297287176020306
0.000297287159579378
0.000297287144506008
0.000297287131644369
0.000297287120949455
0.000297287111426267
0.000297287099253218
0.000297287071078552
0.000297286982057468
0.000297286687382045
0.000297285738232067
0.000297282802800285
0.000297274109317578
0.00029724950050739
0.000297183077114254
0.00029701261773707
0.000296598078274623
0.000295646109560047
0.000293589272800035
0.000289423328419658
0.000281540661745001
0.000267648222847373
0.00024489711743369
0.000210332451370574
0.000161663811485932
9.81811225065479e-05
2.06621048908272e-05
7.10702916034745e-07
7.13075699814185e-07
2.08406613255599e-05
9.92885145086424e-05
0.000163568168635116
0.000212876581161005
0.000247929282950766
0.00027102814717276
0.000285149573605694
0.000293170794139048
0.000297413613236826
0.000299509561439363
0.000300479793056616
0.000300902163813893
0.000301075702422537
0.000301143227626902
0.000301168185747496
0.000301176967188445
0.00030117990825342
0.000301180839748596
0.000301181111032993
0.000301181174843438
0.000301181177627708
0.000301181165124024
0.000301181149985529
0.000301181135745739
0.000301181123286062
0.000301181112564141
0.000301181102568525
0.000301181089432433
0.000301181059658238
0.000301180967936241
0.000301180667965997
0.000301179706214296
0.000301176736519659
0.000301167945333679
0.000301143059962823
0.000301075880237402
0.000300903448385056
0.000300484038970151
0.000299520744642515
0.000297439199002292
0.000293222856361305
0.000285244337773921
0.000271182183627265
0.00024815138396007
0.000213157094858516
0.000163871490803789
9.95565689378024e-05
2.09533947224621e-05
7.20314844783457e-07
7.19940507079254e-07
2.1049019205006e-05
0.000100275330543058
0.000165153801471943
0.000214909375500731
0.0002502773807703
0.000273585412414183
0.000287837083824424
0.000295934358892093
0.000300218841261449
0.000302336233645664
0.00030331686066314
0.000303743992123563
0.000303919597761057
0.000303987977492466
0.000304013273953091
0.000304022184963375
0.000304025174970587
0.000304026125452557
0.000304026404881184
0.000304026472911288
0.000304026478277192
0.000304026467466621
0.000304026453517572
0.00030402644006996
0.000304026428037886
0.000304026417382562
0.000304026407080515
0.000304026393229744
0.000304026362225425
0.000304026268421426
0.000304025964443161
0.000304024993365266
0.000304021998670264
0.000304013136592121
0.000303988050771557
0.000303920322485021
0.000303746458288012
0.000303323508162561
0.000302351970907957
0.000300252427168945
0.000295999352581888
0.000287950946360663
0.000273765016825765
0.0002505301881856
0.000215222407528566
0.000165486359801084
0.000100563175080337
2.1165847864294e-05
7.27286585996441e-07
7.24785937034169e-07
2.11969010961988e-05
0.000100979219431742
0.000166286320985744
0.000216362888494786
0.000251957961202525
0.000275417161876083
0.000289763331446421
0.000297916022268598
0.000302231001662404
0.000304364168519238
0.000305352482734288
0.00030578315431768
0.000305960306147345
0.00030602932915882
0.000306054882112781
0.000306063892164015
0.000306066919989028
0.000306067885376614
0.000306068171334334
0.000306068242870225
0.000306068250455626
0.000306068241109441
0.000306068228225288
0.000306068215516983
0.000306068203926223
0.000306068193418317
0.000306068182961035
0.00030606816862601
0.000306068136731377
0.000306068041392484
0.000306067734477018
0.000306066756665193
0.000306063744111511
0.000306054831610477
0.000306029603298868
0.000305961484695237
0.000305786599950612
0.000305361123685449
0.000304383698713611
0.000302271287611941
0.000297991934086034
0.000289893503001245
0.000275618941834251
0.000252237963257104
0.00021670552673599
0.000166646467133228
0.000101286613388
2.1317980608413e-05
7.32251150866266e-07
7.28139779883265e-07
2.12998388005916e-05
0.000101471828256854
0.000167080194282627
0.000217383126301861
0.000253138901469689
0.000276705502510077
0.000291119089644873
0.000299311493057323
0.000303648432719615
0.000305793016706353
0.000306786924948669
0.000307220187493772
0.000307398477826251
0.000307467977573954
0.000307493721972094
0.000307502806564313
0.000307505863161098
0.000307506840067386
0.00030750713117206
0.000307507205605231
0.000307507215089904
0.000307507206950951
0.000307507195007303
0.000307507182982383
0.000307507171839167
0.000307507161547
0.000307507151067607
0.000307507136453478
0.000307507103968671
0.000307507007563381
0.000307506698582467
0.000307505716051811
0.000307502691047577
0.000307493743459534
0.000307468415940628
0.000307400025162323
0.000307224427521003
0.000306797183766396
0.000305815633584333
0.000303694196914875
0.000299396394249085
0.000291262818764192
0.000276925954744319
0.000253442186376426
0.000217751650102422
0.000167465088016927
0.000101797304531179
2.14249694582693e-05
7.35723209351021e-07
7.30415556946025e-07
2.13700878754306e-05
0.000101809929769834
0.00016762611221443
0.000218085788957012
0.000253953284203277
0.000277594863342194
0.000292055726101211
0.000300276110013154
0.000304628600723359
0.000306781313061356
0.00030777922645351
0.000308214355071125
0.000308393470510075
0.000308463318062678
0.000308489203149225
0.000308498342987089
0.00030850142114442
0.00030850240682213
0.000308502701918474
0.000308502778669819
0.000308502789711081
0.000308502782665832
0.000308502771551967
0.000308502760157401
0.000308502749463722
0.000308502739444081
0.00030850272905622
0.000308502714339329
0.000308502681520519
0.000308502584439055
0.000308502274088826
0.000308501288382208
0.000308498254961185
0.000308489283592296
0.000308463888645453
0.000308395312346848
0.000308219227490453
0.000307790773013923
0.000306806391697925
0.000304678751159962
0.000300368251259595
0.000292210463526792
0.000277830639147611
0.000254275935008149
0.000218476198484754
0.000168032333182602
0.000102151331827179
2.14988570571508e-05
7.38108027103938e-07
7.31926852881445e-07
2.14170058596483e-05
0.000102037092290157
0.000167993717858808
0.000218559786522927
0.000254503451212211
0.000278196386650269
0.000292689788851557
0.000300929530834669
0.000305292839044274
0.000307451237959745
0.000308451970165171
0.000308888420360519
0.000309068123991312
0.000309138221209287
0.000309164208055465
0.000309173388208332
0.000309176482283488
0.000309177474550115
0.000309177772713783
0.000309177851292036
0.000309177863635427
0.000309177857541676
0.000309177847161414
0.000309177836350216
0.000309177826105855
0.000309177816405086
0.000309177806203228
0.000309177791530677
0.00030917775859051
0.000309177661150508
0.000309177349978856
0.000309176362265993
0.000309173323409092
0.000309164336507983
0.000309138897190626
0.000309070198101338
0.000308893789251699
0.000308464526566693
0.00030747824945486
0.000305346444149345
0.000301027402807819
0.000292853299711492
0.000278444484343321
0.000254841846909469
0.000218968222983779
0.000168417766421367
0.000102392025040238
2.15489101219401e-05
7.39715196063101e-07
7.329036351235e-07
2.14475012189098e-05
0.000102185661746169
0.000168234780917881
0.000218871284711839
0.000254865640861255
0.000278592938478804
0.000293108234852336
0.000301361078668043
0.000305731753651744
0.000307894050113432
0.000308896727258627
0.00030933409566274
0.000309514210912689
0.000309584484176868
0.000309610543371669
0.000309619752466587
0.000309622858117512
0.000309623855271055
0.000309624155780084
0.000309624235801999
0.000309624249223046
0.000309624243951391
0.000309624234223455
0.000309624223955657
0.000309624214159297
0.000309624204814346
0.000309624194874872
0.000309624180365939
0.000309624147476134
0.000309624049931299
0.000309623738365435
0.00030962274953227
0.000309619707445928
0.000309610711034394
0.000309585244050887
0.000309516467413318
0.000309339851947404
0.000308910069905396
0.000307922567129106
0.00030578805607496
0.000301463443621475
0.00029327866435337
0.000278850826475015
0.000255216661985676
0.000219294331201601
0.000168673449119528
0.000102551834175128
2.15820407448784e-05
7.40774104331e-07
7.33508160585303e-07
2.14664790784251e-05
0.000102278739269761
0.000168386341037702
0.000219067694507167
0.000255094552484507
0.000278844037298742
0.000293373573497107
0.00030163500342527
0.00030601054447373
0.000308175436350274
0.000309179419473181
0.000309617409717814
0.000309797806182654
0.000309868200820441
0.000309894310388388
0.000309903539868292
0.000309906653800324
0.000309907654535131
0.000309907956830905
0.000309908037999747
0.000309908052315836
0.000309908047757866
0.00030990803861506
0.000309908028857251
0.000309908019506604
0.00030990801054562
0.000309908000928115
0.000309907986676311
0.000309907953971866
0.000309907856521309
0.000309907544894194
0.00030990655562164
0.00030990351197477
0.000309894510545985
0.000309869028228873
0.000309800207170291
0.000309623470471467
0.000309193378078025
0.000308205132419761
0.000306068962975177
0.000301740905393723
0.0002935494765037
0.000279109720406972
0.000255455704429069
0.000219502569193432
0.000168836961759685
0.000102654201972427
2.16032247117193e-05
7.41448927771296e-07
7.33848755370408e-07
2.14772343471775e-05
0.00010233193487147
0.000168473486620544
0.000219181194069626
0.000255227373813085
0.000278990203358766
0.000293528407338862
0.000301795128533729
0.000306173706954855
0.000308340239523654
0.000309345058881849
0.000309783452470575
0.000309964033712771
0.000310034509153478
0.000310060652724451
0.000310069896187144
0.000310073015923042
0.000310074019252009
0.000310074322911508
0.000310074405002465
0.000310074420069398
0.000310074416136966
0.000310074407523866
0.000310074398248013
0.000310074389339109
0.000310074380781547
0.000310074371529333
0.000310074357604193
0.000310074325187069
0.000310074227983857
0.000310073916557056
0.000310072927388135
0.000310069883512343
0.000310060880616038
0.000310035392577947
0.000309966552573848
0.000309789759508315
0.000309359513869703
0.000308370884956379
0.000306233831366052
0.000301903890288659
0.000293708754028088
0.000279262249022533
0.000255596848820892
0.000219625859370168
0.000168934084333771
0.000102715230169758
2.16158715075874e-05
7.41851682737183e-07
7.33990658228492e-07
2.14817625283438e-05
0.000102354761484725
0.000168511560628273
0.000219231516931484
0.000255286968483366
0.000279056403695803
0.000293599032218528
0.000301868538268641
0.000306248765452124
0.000308416214621017
0.000309421514606859
0.000309860146513362
0.0003100408399242
0.000310111365781492
0.00031013753122215
0.00031014678403094
0.000310149907869353
0.000310150913191225
0.000310151218015687
0.000310151300956212
0.000310151316739882
0.000310151313417257
0.000310151305324108
0.000310151296524943
0.000310151288053296
0.000310151279894534
0.000310151271003237
0.000310151257401895
0.000310151225276151
0.000310151128347989
0.000310150817224857
0.000310149828494656
0.000310146785404934
0.00031013778397181
0.00031011229830777
0.000310043460726197
0.000309866665035911
0.000309436394461197
0.000308447671938794
0.00030631034999314
0.000301979753968677
0.000293783203773124
0.000279333948622577
0.000255663673640524
0.000219684736213096
0.000168980931890374
0.000102745009065427
2.16221181021085e-05
7.42052483788691e-07
7.3396313298316e-07
2.14809657664619e-05
0.000102351582951706
0.000168507678221186
0.000219227886122693
0.000255284091049891
0.000279054443448162
0.000293597932578716
0.00030186813046066
0.000306248852436421
0.000308416622091217
0.000309422112741585
0.000309860849714217
0.000310041597321453
0.000310112149687105
0.000310138327667236
0.000310147586410152
0.000310150713220103
0.000310151720235352
0.00031015202620967
0.000310152110056903
0.000310152126617465
0.000310152123949564
0.000310152116403226
0.000310152108092815
0.00031015210005038
0.000310152092261373
0.000310152083681044
0.00031015207033392
0.000310152038415083
0.000310151941679961
0.00031015163083573
0.000310150642738861
0.000310147601307282
0.000310138604119213
0.000310113128682116
0.000310044314147069
0.000309867566950687
0.000309437391372698
0.00030844884127394
0.000306311807384351
0.000301981650361049
0.000293785702604535
0.000279337175403074
0.000255667637413627
0.000219689230657777
0.000168985426225891
0.000102748534177294
2.16230309041649e-05
7.42086578734351e-07
7.33763464037828e-07
2.14747710518096e-05
0.000102322128157707
0.00016846150880866
0.000219169995428947
0.000255218503852909
0.000278984170970567
0.000293525040944955
0.000301793907957263
0.000306174022352734
0.000308341551131394
0.000309346963142333
0.000309785683303892
0.000309966432904757
0.000310036990565132
0.000310063172902782
0.000310072434599163
0.000310075563374609
0.000310076571789333
0.000310076878862264
0.000310076963635178
0.000310076981000608
0.000310076978995231
0.000310076971994708
0.000310076964169842
0.00031007695654238
0.000310076949097235
0.00031007694079056
0.000310076927650891
0.000310076895889454
0.000310076799316878
0.000310076488806834
0.000310075501678284
0.000310072463055617
0.00031006347349475
0.000310038017460363
0.00030996924945069
0.000309792607742803
0.000309362658439408
0.000308374567095825
0.000306238410951869
0.000301909836232291
0.000293716572358284
0.000279272325216598
0.000255609203756163
0.000219639844326288
0.000168948046977325
0.000102726159867025
2.16186995008933e-05
7.41957284213112e-07
7.33357559864744e-07
2.14621426562172e-05
0.000102261511052014
0.000168365287810556
0.000219048009085407
0.00025507897152647
0.000278833471989892
0.000293367733765718
0.000301632976801611
0.000306011252942226
0.000308177921538929
0.000309182962663942
0.000309621536136492
0.000309802233161259
0.00030987277435602
0.000309898952787215
0.000309908214440119
0.000309911344141831
0.000309912353612204
0.00030991266167563
0.000309912747340891
0.000309912765492912
0.000309912764129859
0.000309912757655455
0.000309912750298517
0.00030991274306729
0.000309912735945776
0.000309912727892014
0.000309912714941502
0.00030991268333075
0.000309912586954576
0.000309912276940009
0.000309911291317434
0.000309908257100693
0.00030989927961173
0.000309873854732227
0.000309805162862065
0.000309628697714495
0.000309199136779222
0.000308211854525963
0.000306077291504208
0.000301751675197418
0.000293563582773985
0.000279127834585366
0.000255477839623875
0.000219527544398291
0.000168861823273337
0.000102673606728698
2.16082476038722e-05
7.41637098209935e-07
7.32675574238008e-07
2.14409611737109e-05
0.00010215974871208
0.000168203081880331