/*--------------------------------*- C++ -*----------------------------------*\
  =========                 |
  \\      /  F ield         | OpenFOAM: The Open Source CFD Toolbox
   \\    /   O peration     | Website:  https://openfoam.org
    \\  /    A nd           | Version:  10
     \\/     M anipulation  |
\*---------------------------------------------------------------------------*/
FoamFile
{
    format      ascii;
    class       volScalarField;
    location    "5.2";
    object      nut;
}
// * * * * * * * * * * * * * * * * * * * * * * * * * * * * * * * * * * * * * //

dimensions      [0 2 -1 0 0 0 0];

internalField   nonuniform List<scalar> 
2500
(
1.03104176728251e-14
2.01210008628862e-13
8.5174053564628e-13
1.45128631682847e-12
1.93292884697555e-12
2.28342501991424e-12
2.51583976452598e-12
2.65692202394679e-12
2.73569978453425e-12
2.77636254938531e-12
2.79585941736388e-12
2.80458378876767e-12
2.80824310689813e-12
2.80968739821181e-12
2.81022546949975e-12
2.8104149539955e-12
2.81047783553616e-12
2.81049718356552e-12
2.81050235649885e-12
2.81050320598431e-12
2.81050287589785e-12
2.8105023084859e-12
2.81050177823622e-12
2.81050134199563e-12
2.81050101828092e-12
2.81050081705981e-12
2.8105007575628e-12
2.81050078487179e-12
2.81050080511645e-12
2.81050081913023e-12
2.81050037247613e-12
2.81049798636203e-12
2.81048938027751e-12
2.81046176931822e-12
2.81037886656367e-12
2.81014283898221e-12
2.80950343754175e-12
2.80785616505644e-12
2.80382977015025e-12
2.79452304170848e-12
2.77425864297016e-12
2.73287177409838e-12
2.65395468671603e-12
2.51414715183591e-12
2.28519313276747e-12
1.94032517998148e-12
1.46477942687926e-12
8.67732022188774e-13
2.08482967526848e-13
1.09385786378821e-14
1.01559975174092e-12
5.20059083474574e-11
2.24811144140476e-10
3.83539829625351e-10
5.11521257772343e-10
6.05161186621685e-10
6.67667753643121e-10
7.05899716162778e-10
7.27425104314771e-10
7.38633482882671e-10
7.44056441879925e-10
7.4650549278267e-10
7.47542241981763e-10
7.47955219290976e-10
7.48110493258804e-10
7.4816568437525e-10
7.48184185260859e-10
7.48189951879938e-10
7.48191532254503e-10
7.4819182138133e-10
7.48191751336795e-10
7.48191603814486e-10
7.48191463154057e-10
7.48191346997278e-10
7.48191260731667e-10
7.48191207398833e-10
7.48191192148631e-10
7.48191199267752e-10
7.48191203523491e-10
7.481912019636e-10
7.48191055870656e-10
7.48190329836991e-10
7.48187773695942e-10
7.48179660660379e-10
7.48155512855016e-10
7.48087313238159e-10
7.47904015871601e-10
7.47435547899044e-10
7.46299727797208e-10
7.4369581129737e-10
7.38072620721947e-10
7.26681832118053e-10
7.05135218535479e-10
6.67256325420113e-10
6.05667402220821e-10
5.13489981401565e-10
3.87066622987278e-10
2.28949287276442e-10
5.383687647435e-11
1.07465109167398e-12
3.58466401874005e-12
9.29766173464162e-10
3.1511199193633e-07
5.35776426845793e-07
7.12337230655228e-07
8.41153306057814e-07
9.27161545503541e-07
9.79910848723013e-07
1.00974494826014e-06
1.02537017677366e-06
1.03298042047276e-06
1.03644188825767e-06
1.03791817768305e-06
1.03851075701633e-06
1.03873531125303e-06
1.03881578124632e-06
1.03884300151796e-06
1.03885158792903e-06
1.03885399519593e-06
1.03885447548617e-06
1.03885440965488e-06
1.03885422084442e-06
1.03885403485299e-06
1.03885387998562e-06
1.03885376447963e-06
1.03885369275906e-06
1.03885367177012e-06
1.0388536789237e-06
1.03885368209907e-06
1.03885367063328e-06
1.03885343790423e-06
1.03885235413675e-06
1.03884860880985e-06
1.03883681732225e-06
1.03880193480429e-06
1.03870394905093e-06
1.03844197420926e-06
1.03777594465763e-06
1.03616974114836e-06
1.03250725052958e-06
1.02464017656898e-06
1.00878524787947e-06
9.78931937526127e-07
9.2664205603479e-07
8.41807986627851e-07
7.14853030493782e-07
5.40273254470021e-07
3.20387116092219e-07
9.59144011713516e-10
3.75808437222757e-12
6.31263932557159e-12
1.6488007553093e-09
5.59211963477878e-07
9.45518336981861e-07
1.25195176902875e-06
1.4742370284478e-06
1.62215716014471e-06
1.71274912540726e-06
1.76398811528282e-06
1.79085250754416e-06
1.80396015609252e-06
1.80993578044555e-06
1.81249116720983e-06
1.81351996455394e-06
1.81391110604519e-06
1.81405178828252e-06
1.81409958373537e-06
1.81411475214917e-06
1.81411905489715e-06
1.81411994753687e-06
1.81411986316837e-06
1.81411955968418e-06
1.81411925182999e-06
1.81411899358986e-06
1.81411879976375e-06
1.81411867773215e-06
1.81411863904405e-06
1.8141186453024e-06
1.81411865293393e-06
1.81411862888585e-06
1.81411822233736e-06
1.81411637835225e-06
1.81411001231534e-06
1.81408995147576e-06
1.81403052292373e-06
1.81386333859864e-06
1.81341572416346e-06
1.81227630896697e-06
1.8095255611679e-06
1.80324776330763e-06
1.7897530947779e-06
1.76253777321762e-06
1.71125102700572e-06
1.62130427889488e-06
1.47506561019582e-06
1.25545895080644e-06
9.51875071673213e-07
5.66661109173348e-07
1.68979041958998e-09
6.55120581989255e-12
8.94344755002154e-12
2.33738364218359e-09
7.89285209708709e-07
1.3279411652435e-06
1.75222378881321e-06
2.05856757139179e-06
2.2618831602757e-06
2.38626549429517e-06
2.45662197263341e-06
2.49354384376707e-06
2.51158650414406e-06
2.51982837842026e-06
2.52336121167931e-06
2.5247873355707e-06
2.52533116335088e-06
2.52552743002977e-06
2.52559438756225e-06
2.52561576573999e-06
2.52562190474279e-06
2.52562322955543e-06
2.52562315935321e-06
2.52562277474074e-06
2.52562237242192e-06
2.52562203180047e-06
2.52562177402196e-06
2.52562160832539e-06
2.52562154740807e-06
2.52562154926313e-06
2.52562156413212e-06
2.52562151737117e-06
2.52562094480855e-06
2.52561843556412e-06
2.52560979000924e-06
2.52558253200962e-06
2.52550167602735e-06
2.52527386255375e-06
2.52466299052882e-06
2.52310581075173e-06
2.51934184928426e-06
2.51074257564064e-06
2.49224094530609e-06
2.45489706282511e-06
2.38446102124057e-06
2.2607857373586e-06
2.05935291657079e-06
1.7560209412153e-06
1.33494127570228e-06
7.97519898134716e-07
2.38324903335899e-09
9.21492684314494e-12
1.13863485537071e-11
2.97679600342431e-09
1.00066379456295e-06
1.67633157955109e-06
2.2054263726344e-06
2.5860102863427e-06
2.8380736427967e-06
2.99215971220201e-06
3.07933589860361e-06
3.12512652803126e-06
3.14753547113683e-06
3.15779081396094e-06
3.16219631223373e-06
3.16397913394341e-06
3.16466089062347e-06
3.16490773226511e-06
3.16499228356981e-06
3.16501944166757e-06
3.16502733915318e-06
3.16502911280937e-06
3.16502909289306e-06
3.1650286609078e-06
3.1650281931154e-06
3.16502779246641e-06
3.16502748613709e-06
3.16502728411736e-06
3.16502719511512e-06
3.1650271916824e-06
3.16502721886309e-06
3.16502713359355e-06
3.16502639463572e-06
3.16502330120667e-06
3.16501268148465e-06
3.16497921068457e-06
3.16487983770021e-06
3.16459949723627e-06
3.16384677338221e-06
3.16192558547048e-06
3.15727656985709e-06
3.14664511301242e-06
3.12375263712073e-06
3.07751300904875e-06
2.99023396385391e-06
2.83684117272611e-06
2.58665721214561e-06
2.20908625931919e-06
1.68319642146638e-06
1.00880358262469e-06
3.02333365592674e-09
1.1670080793234e-11
1.35910455740842e-11
3.5547537626094e-09
1.19024908293621e-06
1.98659118252964e-06
2.60717372456069e-06
3.05221809885624e-06
3.34650443615994e-06
3.52631080807498e-06
3.62807010353648e-06
3.68156948664187e-06
3.70778668133786e-06
3.71980552405839e-06
3.72497904594805e-06
3.72707750686576e-06
3.72788206718879e-06
3.72817426098937e-06
3.72827473387344e-06
3.72830719605251e-06
3.72831675372438e-06
3.72831898608189e-06
3.72831905068261e-06
3.72831860407055e-06
3.72831809874911e-06
3.72831765971082e-06
3.72831731991544e-06
3.7283170897739e-06
3.72831697436612e-06
3.72831696208632e-06
3.72831697830994e-06
3.72831684452461e-06
3.72831595181832e-06
3.728312347043e-06
3.72830003042818e-06
3.72826125376277e-06
3.72814607319699e-06
3.72782081216731e-06
3.72694648391988e-06
3.72471248300901e-06
3.71930121834306e-06
3.70691630887791e-06
3.680229551964e-06
3.62629352373672e-06
3.52442671780372e-06
3.34526479864392e-06
3.05273430390968e-06
2.61049744924186e-06
1.99289662954469e-06
1.19779157225422e-06
3.59945842772118e-09
1.38738453887738e-11
1.55301726628726e-11
4.06427161401694e-09
1.35644049316869e-06
2.25698820460694e-06
2.9560160621832e-06
3.45611895152269e-06
3.78641750791179e-06
3.98816834351006e-06
4.10239090183174e-06
4.16249639661177e-06
4.19198866035658e-06
4.20553048677451e-06
4.211370474295e-06
4.21374431465751e-06
4.21465666688629e-06
4.21498895240386e-06
4.21510362898801e-06
4.21514088950964e-06
4.2151519909461e-06
4.21515468245215e-06
4.21515486088202e-06
4.21515442831544e-06
4.2151539102724e-06
4.215153452173e-06
4.2151530925551e-06
4.21515284233676e-06
4.21515270485884e-06
4.21515267162953e-06
4.21515266311631e-06
4.21515247633077e-06
4.21515143975177e-06
4.21514738584919e-06
4.21513362346867e-06
4.21509036778262e-06
4.21496186595185e-06
4.21459870690362e-06
4.21362157477343e-06
4.21112254938427e-06
4.20506421322323e-06
4.19118835411392e-06
4.16127117672858e-06
4.10077606585237e-06
3.98646737474194e-06
3.7853092902461e-06
3.45659083040601e-06
2.95898420053595e-06
2.26258804205217e-06
1.36317219849748e-06
4.10589420979999e-09
1.58044225040079e-11
1.71945576214985e-11
4.50286444638602e-09
1.49893996212023e-06
2.48776444630895e-06
3.25289047194451e-06
3.79926417769973e-06
4.15980864466639e-06
4.38000650673107e-06
4.5047272041961e-06
4.57041343816929e-06
4.60268249613878e-06
4.6175210852618e-06
4.62393126957689e-06
4.6265419753705e-06
4.6275476034008e-06
4.62791482661344e-06
4.62804199344636e-06
4.62808353210923e-06
4.62809604608398e-06
4.62809918747152e-06
4.62809950243798e-06
4.62809910594901e-06
4.62809859561362e-06
4.62809813454979e-06
4.62809776661298e-06
4.62809750334224e-06
4.62809734655105e-06
4.62809728423782e-06
4.6280972393957e-06
4.62809699777418e-06
4.62809582955496e-06
4.6280913816785e-06
4.62807639941887e-06
4.62802940948882e-06
4.62788983370183e-06
4.62749515170665e-06
4.62643236139337e-06
4.62371208462968e-06
4.6171125904649e-06
4.60198798403722e-06
4.5693621111513e-06
4.50336279439086e-06
4.37860717404045e-06
4.15897025596099e-06
3.79982835663911e-06
3.25560961830401e-06
2.49271275868734e-06
1.5048577283355e-06
4.54108327867166e-09
1.74569102001049e-11
1.8589732089604e-11
4.87175417004468e-09
1.61851041491969e-06
2.68071552224906e-06
3.50057339313759e-06
4.08520097994781e-06
4.47075354841428e-06
4.70622464421346e-06
4.8396575557459e-06
4.90998953854851e-06
4.94457884258598e-06
4.96050565679993e-06
4.96739665184262e-06
4.97020816120161e-06
4.9712933390483e-06
4.97169056771273e-06
4.97182855809154e-06
4.97187385446719e-06
4.97188763873268e-06
4.97189121281503e-06
4.9718916809978e-06
4.97189133295496e-06
4.97189084573397e-06
4.97189039421703e-06
4.97189002707875e-06
4.97188975662471e-06
4.97188958343422e-06
4.97188949205271e-06
4.97188941045981e-06
4.97188911025579e-06
4.97188781378001e-06
4.97188302419173e-06
4.97186702397942e-06
4.97181696247018e-06
4.97166831336513e-06
4.97124780081874e-06
4.97011471915979e-06
4.96721256710604e-06
4.96016750458059e-06
4.94401335624567e-06
4.9091520438606e-06
4.83860713202323e-06
4.70522034804167e-06
4.47031158424956e-06
4.08601544838462e-06
3.50322347892573e-06
2.68519246795008e-06
1.62374912253028e-06
4.9068863025899e-09
1.88399469991153e-11
1.97325068858972e-11
5.17504884823948e-09
1.71672399504335e-06
2.8387859880081e-06
3.70317400427807e-06
4.3189045100598e-06
4.7248050723635e-06
4.97272545637128e-06
5.11327829760467e-06
5.18741946496019e-06
5.22391857920938e-06
5.24074504991154e-06
5.24803547675145e-06
5.25101469954633e-06
5.25216671684062e-06
5.25258933258379e-06
5.25273656205007e-06
5.25278510855937e-06
5.25280001494306e-06
5.25280399095562e-06
5.25280461509635e-06
5.25280433216213e-06
5.25280387882628e-06
5.25280344575509e-06
5.25280308614734e-06
5.25280281318225e-06
5.25280262666718e-06
5.25280250955803e-06
5.25280239056645e-06
5.2528020293797e-06
5.25280061394872e-06
5.25279553050811e-06
5.25277869142406e-06
5.25272613980744e-06
5.25257017015117e-06
5.25212882364095e-06
5.25093897943646e-06
5.24788972631521e-06
5.24048375157117e-06
5.22349465059206e-06
5.18681877964674e-06
5.11258195721989e-06
4.97218272932196e-06
4.72486405326791e-06
4.32012299229621e-06
3.70596169250043e-06
2.8430325876201e-06
1.72149305101337e-06
5.20779177714755e-09
1.99723638168164e-11
2.06475506405111e-11
5.41890637751192e-09
1.79571234005252e-06
2.96568558538071e-06
3.86566544123342e-06
4.50625874777021e-06
4.92844557213516e-06
5.1863517004352e-06
5.33263196922287e-06
5.40984800102695e-06
5.44789494032098e-06
5.46545381602347e-06
5.47307102316391e-06
5.47618819732638e-06
5.47739552335172e-06
5.47783929256353e-06
5.47799428805204e-06
5.4780456017806e-06
5.47806148402186e-06
5.47806582435836e-06
5.47806660216276e-06
5.47806639095383e-06
5.47806597790763e-06
5.47806556900526e-06
5.47806522158157e-06
5.47806494974193e-06
5.47806475286344e-06
5.47806461290773e-06
5.47806445774217e-06
5.47806403819207e-06
5.47806251516725e-06
5.47805718257244e-06
5.47803966199259e-06
5.47798512276126e-06
5.47782334180179e-06
5.47736546775911e-06
5.47613054899014e-06
5.4729643170407e-06
5.4652709391476e-06
5.44761619031736e-06
5.40949250552894e-06
5.33230842382686e-06
5.18630969594132e-06
4.92908062221272e-06
4.50801090228253e-06
3.8687872345111e-06
2.96995154234075e-06
1.80024398732484e-06
5.4501195501585e-09
2.08798905055029e-11
2.13641252474605e-11
5.61072165240158e-09
1.85792939993304e-06
3.0655341358266e-06
3.99345641171678e-06
4.65358469703268e-06
5.08859021064728e-06
5.35437563643602e-06
5.50518929523351e-06
5.58484808482833e-06
5.62412976409605e-06
5.64227558151678e-06
5.65015598124822e-06
5.65338487092399e-06
5.65463725750438e-06
5.65509838018314e-06
5.65525980188599e-06
5.65531343411302e-06
5.65533015228412e-06
5.65533481645648e-06
5.65533573756608e-06
5.65533559873584e-06
5.65533522879106e-06
5.6553348470967e-06
5.65533451473683e-06
5.65533424674232e-06
5.65533404228315e-06
5.65533388260053e-06
5.65533369428368e-06
5.65533322148064e-06
5.65533160376357e-06
5.65532606371306e-06
5.65530799819887e-06
5.6552518982805e-06
5.65508558159623e-06
5.65461482022123e-06
5.65334472534024e-06
5.65008708281073e-06
5.64216882918658e-06
5.62399269320313e-06
5.58473408423584e-06
5.50523855978925e-06
5.35484729938239e-06
5.08984350351323e-06
4.65596346606579e-06
3.99707325479313e-06
3.07004067137559e-06
1.86244075588352e-06
5.64125865826652e-09
2.15920816796104e-11
2.19131866107269e-11
5.7583918964965e-09
1.90594011648583e-06
3.14255010065185e-06
4.09201801699788e-06
4.76723033683195e-06
5.21215543999878e-06
5.48405534459994e-06
5.63839884506207e-06
5.71996697949516e-06
5.76021792511344e-06
5.77882666105613e-06
5.78691570132928e-06
5.79023364210939e-06
5.79152216605182e-06
5.79199730221685e-06
5.79216395772843e-06
5.79221950104657e-06
5.7922369225062e-06
5.79224186704277e-06
5.79224291825373e-06
5.79224284965176e-06
5.79224252285894e-06
5.79224216929547e-06
5.79224185345292e-06
5.79224159125128e-06
5.79224138179016e-06
5.79224120575992e-06
5.79224098847739e-06
5.79224046900137e-06
5.79223877040565e-06
5.79223306113636e-06
5.79221456732548e-06
5.79215726283942e-06
5.79198746749314e-06
5.79150683383281e-06
5.79020977347481e-06
5.78688197052292e-06
5.77879090519259e-06
5.76021368395325e-06
5.72008135896071e-06
5.63880553475292e-06
5.48503030033311e-06
5.21403650142866e-06
4.77028656183377e-06
4.09624146167715e-06
3.14746781265481e-06
1.91060922103925e-06
5.78898822483788e-09
2.21396434308069e-11
2.23250341189789e-11
5.86971058180388e-09
1.94224742976189e-06
3.20079852979977e-06
4.16658320906492e-06
4.85324091596104e-06
5.30571207913078e-06
5.58227788254228e-06
5.73932466409391e-06
5.82236095679012e-06
5.8633605232919e-06
5.88232852917583e-06
5.89058034020861e-06
5.89396814505534e-06
5.89528519419879e-06
5.89577146872263e-06
5.89594231942161e-06
5.89599941244905e-06
5.89601741484811e-06
5.89602259724423e-06
5.89602376357553e-06
5.89602376026253e-06
5.89602347457349e-06
5.89602314850484e-06
5.89602284955868e-06
5.89602259447736e-06
5.89602238236832e-06
5.89602219349788e-06
5.89602195207347e-06
5.89602139329309e-06
5.89601962776086e-06
5.8960137835369e-06
5.89599495927988e-06
5.89593674158409e-06
5.89576432587977e-06
5.89527626539716e-06
5.89395890656686e-06
5.89057822763028e-06
5.88235676833871e-06
5.86347660674025e-06
5.82268386865086e-06
5.74006171725539e-06
5.58372672549979e-06
5.30820139693534e-06
4.85698430946344e-06
4.17147177051147e-06
3.20623857456648e-06
1.94720198107813e-06
5.90092419118903e-09
2.2552307803809e-11
2.26276095339567e-11
5.95191973401155e-09
1.96916496180814e-06
3.24400773757695e-06
4.2219295146857e-06
4.91712123973681e-06
5.37523540537634e-06
5.65530222671218e-06
5.81438514562013e-06
5.89853194638566e-06
5.94010037805536e-06
5.95934274608071e-06
5.96771952272687e-06
5.97116127180315e-06
5.97250048278027e-06
5.97299547112367e-06
5.97316963130893e-06
5.97322796073617e-06
5.9732464348538e-06
5.97325181517152e-06
5.97325308070885e-06
5.97325313592894e-06
5.9732528879468e-06
5.97325258770912e-06
5.97325230529527e-06
5.97325205818599e-06
5.97325184554126e-06
5.97325164730117e-06
5.97325138677682e-06
5.97325079627307e-06
5.97324897717367e-06
5.97324302793744e-06
5.97322395375032e-06
5.97316505651866e-06
5.97299070306328e-06
5.97249715754834e-06
5.97116479837167e-06
5.96774499932471e-06
5.95942695426286e-06
5.94032217181745e-06
5.89903938266734e-06
5.81541768303927e-06
5.65718166146616e-06
5.37829037304504e-06
4.92152611536342e-06
4.22749287531208e-06
3.25002345331648e-06
1.97448122027044e-06
5.98411544400778e-09
2.28573247956732e-11
2.28454483969659e-11
6.01142534275504e-09
1.98873632607374e-06
3.27545532404373e-06
4.26224557157087e-06
4.96369065252255e-06
5.42595319767119e-06
5.70860314411279e-06
5.8691944388246e-06
5.95416753965182e-06
5.99616126982149e-06
6.01560980787837e-06
6.02408100264939e-06
6.02756374671261e-06
6.02891990535872e-06
6.02942160393355e-06
6.02959833384169e-06
6.02965763393054e-06
6.02967648460945e-06
6.02968202645004e-06
6.02968337567501e-06
6.02968348209611e-06
6.02968326769314e-06
6.02968299104549e-06
6.02968272434273e-06
6.029682485714e-06
6.02968227439003e-06
6.02968207007253e-06
6.02968179537406e-06
6.02968118047342e-06
6.02967932008199e-06
6.02967329135525e-06
6.0296540322032e-06
6.02959463914336e-06
6.02941887969527e-06
6.02892135869446e-06
6.02757811999731e-06
6.02412991350189e-06
6.01574164613476e-06
5.99647338314281e-06
5.95483364082884e-06
5.87048344293839e-06
5.71086135222197e-06
5.42951524848647e-06
4.96870452083958e-06
4.26845386016868e-06
3.28205087315398e-06
1.99444507713397e-06
6.04479063529957e-09
2.30785571081107e-11
2.29992058662243e-11
6.05365919441588e-09
2.00269637786025e-06
3.29791629302464e-06
4.2910727183672e-06
4.99702116733896e-06
5.46228180782662e-06
5.74680591138783e-06
5.90849625222909e-06
5.99407419257898e-06
6.03638077376139e-06
6.05598177001621e-06
6.06452317513254e-06
6.06803658442773e-06
6.06940550108284e-06
6.06991228662475e-06
6.07009098078701e-06
6.07015103090686e-06
6.0701701772052e-06
6.07017584853574e-06
6.07017726729015e-06
6.07017741773e-06
6.07017723236984e-06
6.07017697684203e-06
6.07017672480176e-06
6.0701764949255e-06
6.07017628652522e-06
6.07017607912893e-06
6.07017579482632e-06
6.07017516226827e-06
6.07017327143558e-06
6.07016718445601e-06
6.07014779175159e-06
6.07008804450517e-06
6.06991128503312e-06
6.06941093804501e-06
6.06805995829209e-06
6.06459151154555e-06
6.0561531439168e-06
6.03676811138332e-06
5.99487317406189e-06
5.9100017929141e-06
5.74938757229275e-06
5.46628366084357e-06
5.00257438025507e-06
4.29786817963673e-06
3.30505898439913e-06
2.00879284773488e-06
6.08823849797421e-09
2.32360950761109e-11
2.31056311189871e-11
6.08305725600053e-09
2.0124661354112e-06
3.31366093189975e-06
4.31130677127254e-06
5.02044238018092e-06
5.48783305760747e-06
5.77369423220961e-06
5.93617218029665e-06
6.02218565177974e-06
6.06471866536719e-06
6.08443060625467e-06
6.09302339713233e-06
6.09655938601445e-06
6.09793775763894e-06
6.09844834003773e-06
6.09862851255011e-06
6.09868913329247e-06
6.09870850803809e-06
6.09871428144683e-06
6.09871575766226e-06
6.09871594576992e-06
6.09871578435249e-06
6.09871554747747e-06
6.09871530899059e-06
6.09871508799035e-06
6.09871488386873e-06
6.09871467603391e-06
6.09871438619586e-06
6.09871374193299e-06
6.09871182995069e-06
6.09870570200765e-06
6.09868621571609e-06
6.0986262215419e-06
6.09844876620081e-06
6.09794645166738e-06
6.09659007396438e-06
6.09310748857295e-06
6.08463406690661e-06
6.06516722042851e-06
6.02309328196566e-06
5.93785600503341e-06
5.77654477695286e-06
5.4922052332657e-06
5.02645735613146e-06
4.31861561438262e-06
3.3212944359472e-06
2.0189212273741e-06
6.11879353339591e-09
2.33462716134643e-11
2.31778465634638e-11
6.10311968345512e-09
2.01917157815941e-06
3.32448791913947e-06
4.32524241699604e-06
5.03659372780409e-06
5.50547141759641e-06
5.7922701920318e-06
5.95530306708228e-06
6.04162495687625e-06
6.08431917716768e-06
6.10411055079633e-06
6.11274035085258e-06
6.11629270379511e-06
6.11767797332015e-06
6.11819134594701e-06
6.11837261412897e-06
6.11843366247508e-06
6.11845321118178e-06
6.1184590637562e-06
6.11846058594738e-06
6.11846080492646e-06
6.11846066520018e-06
6.11846044478202e-06
6.11846021879678e-06
6.11846000671208e-06
6.11845980799538e-06
6.11845960197585e-06
6.11845931009973e-06
6.11845865921263e-06
6.11845673381993e-06
6.1184505787197e-06
6.11843102944041e-06
6.11837086833933e-06
6.11819294136227e-06
6.11768928955763e-06
6.11632923250459e-06
6.11283698436945e-06
6.10433955093082e-06
6.08481655567823e-06
6.04261957830013e-06
5.95713048202634e-06
5.79533906177447e-06
5.51014750181957e-06
5.04299278276669e-06
4.33298531423594e-06
3.33254440083668e-06
2.02594252215225e-06
6.13989509262756e-09
2.34219471840313e-11
2.32258031211906e-11
6.11651893482118e-09
2.02367679208809e-06
3.33177847805337e-06
4.33464299851657e-06
5.0475049433812e-06
5.5174011596358e-06
5.80484527447816e-06
5.96826206978703e-06
6.05479849847838e-06
6.09760549831959e-06
6.11745277634205e-06
6.12610878673433e-06
6.12967280506289e-06
6.13106302610943e-06
6.13157841689875e-06
6.13176048463429e-06
6.13182184867338e-06
6.13184152805603e-06
6.13184744146378e-06
6.13184899988753e-06
6.1318492446914e-06
6.13184912383592e-06
6.1318489179671e-06
6.13184870355165e-06
6.13184850037811e-06
6.13184830798551e-06
6.13184810565491e-06
6.13184781465812e-06
6.13184716136416e-06
6.13184522886068e-06
6.13183905746945e-06
6.13181946840121e-06
6.13175919949298e-06
6.13158096447311e-06
6.1310764326901e-06
6.12971394038976e-06
6.12621526665368e-06
6.1177018044034e-06
6.09814121073092e-06
6.05586163547736e-06
5.97020314079617e-06
5.80808814553744e-06
5.5223216207485e-06
5.05421626281232e-06
4.34274341934879e-06
3.34018852989553e-06
2.03071608685583e-06
6.15418969621666e-09
2.34729460207538e-11
2.32567982529013e-11
6.12522801764171e-09
2.02662328802787e-06
3.33655934737323e-06
4.34082076782379e-06
5.05468804787569e-06
5.525265750193e-06
5.81314408029186e-06
5.97682071734357e-06
6.06350324750555e-06
6.1063875454591e-06
6.12627339654736e-06
6.13494761735375e-06
6.13851979914377e-06
6.13991351164018e-06
6.14043033729042e-06
6.14061297902246e-06
6.14067457263957e-06
6.14069434894274e-06
6.14070030886534e-06
6.14070189592081e-06
6.14070216209753e-06
6.14070205754648e-06
6.14070186461507e-06
6.14070166097669e-06
6.14070146668823e-06
6.14070128135244e-06
6.14070108422561e-06
6.14070079647381e-06
6.14070014417864e-06
6.14069820959603e-06
6.14069203038658e-06
6.14067241910006e-06
6.14061208614443e-06
6.14043366251063e-06
6.13992858204299e-06
6.13856455177736e-06
6.13506178035039e-06
6.12653801801241e-06
6.10695311647933e-06
6.06461987973206e-06
5.97885089648919e-06
5.81652416699704e-06
5.53038037988614e-06
5.06164976416848e-06
4.34921094560704e-06
3.34525934675439e-06
2.03388549644128e-06
6.16365138760012e-09
2.35065472042716e-11
2.32759807740808e-11
6.1306477971784e-09
2.0284692257042e-06
3.33956512627341e-06
4.34471601651987e-06
5.05922788113469e-06
5.530245605992e-06
5.81840634450524e-06
5.98225326410207e-06
6.06903229976451e-06
6.11196807097067e-06
6.13187982274318e-06
6.14056637616323e-06
6.14414413513816e-06
6.14554025477598e-06
6.14605807945275e-06
6.14624112547108e-06
6.14630288332394e-06
6.14632273065298e-06
6.1463287260115e-06
6.14633033581365e-06
6.14633061974151e-06
6.14633052934474e-06
6.14633034801806e-06
6.14633015449415e-06
6.14632996904537e-06
6.14632979132468e-06
6.14632960058336e-06
6.14632931793108e-06
6.1463286693121e-06
6.14632673659929e-06
6.14632055617516e-06
6.14630093617474e-06
6.14624057227088e-06
6.14606204913514e-06
6.14555666457133e-06
6.14419175334556e-06
6.14068657761557e-06
6.13215666034734e-06
6.11255702586319e-06
6.07019089962691e-06
5.98435359195466e-06
5.82189498582999e-06
5.53551483411843e-06
5.06639051934666e-06
4.35334077983981e-06
3.34850217686806e-06
2.03591568567793e-06
6.16970121216281e-09
2.35279604441776e-11
2.32867881370912e-11
6.13371927279897e-09
2.02952419485442e-06
3.34129338722525e-06
4.34696692660329e-06
5.06186197880112e-06
5.53314435572211e-06
5.82147699366518e-06
5.98542884992733e-06
6.07226812308177e-06
6.11523643275784e-06
6.13516476892656e-06
6.14385932157344e-06
6.14744074511097e-06
6.14883846726151e-06
6.14935696630017e-06
6.14954028963156e-06
6.14960216258966e-06
6.1496220613676e-06
6.14962808377238e-06
6.14962971186255e-06
6.14963001068168e-06
6.14962993269105e-06
6.14962976186986e-06
6.14962957790444e-06
6.14962940121662e-06
6.14962923149686e-06
6.14962904800022e-06
6.14962877182658e-06
6.14962812890592e-06
6.14962620109863e-06
6.14962002464738e-06
6.14960040670269e-06
6.14954003826e-06
6.14936148602332e-06
6.14885598800817e-06
6.14749070107165e-06
6.14398440751427e-06
6.13545145116627e-06
6.11584421612465e-06
6.07346055580709e-06
5.98758589517586e-06
5.82505376537867e-06
5.53853977073295e-06
5.06918968612346e-06
4.35578586458037e-06
3.35042830883865e-06
2.03712599660809e-06
6.17331289128683e-09
2.35407402937321e-11
2.32912905260709e-11
6.13501234390237e-09
2.02997686324722e-06
3.34204842357173e-06
4.34796486856085e-06
5.06304378997625e-06
5.5344571647304e-06
5.82287754697424e-06
5.98688463085274e-06
6.0737566015285e-06
6.11674308893063e-06
6.13668095681567e-06
6.14538023576252e-06
6.14896388383164e-06
6.15036260585012e-06
6.15088153861307e-06
6.15106504729913e-06
6.15112700161998e-06
6.15114693992226e-06
6.15115298543131e-06
6.15115463037071e-06
6.15115494340467e-06
6.15115487750817e-06
6.15115471699902e-06
6.15115454248762e-06
6.15115437447177e-06
6.15115421266127e-06
6.1511540363226e-06
6.1511537665707e-06
6.1511531294289e-06
6.15115120707662e-06
6.15114503664805e-06
6.15112542740479e-06
6.15106507455334e-06
6.15088655133959e-06
6.15038110041986e-06
6.14901586155974e-06
6.14550951602605e-06
6.13697606532075e-06
6.11736697419976e-06
6.07497799262213e-06
5.98909034454227e-06
5.82653017622151e-06
5.53996164515101e-06
5.07051489090843e-06
4.35695345534345e-06
3.3513573486179e-06
2.03771654773813e-06
6.17509672602026e-09
2.35471116584052e-11
2.32904165532773e-11
6.13478465561007e-09
2.02991377794373e-06
3.34197134861973e-06
4.34789276058267e-06
5.0629866072171e-06
5.53441816155438e-06
5.82285560545201e-06
5.98687640652537e-06
6.07375818831598e-06
6.11675103085714e-06
6.13669267969073e-06
6.14539404219017e-06
6.14897876504151e-06
6.15037801276193e-06
6.15089719420537e-06
6.15108082057732e-06
6.15114283383053e-06
6.15116280571666e-06
6.15116887403038e-06
6.15117053695224e-06
6.15117086539407e-06
6.15117081248251e-06
6.15117066281811e-06
6.15117049800001e-06
6.1511703384966e-06
6.15117018401935e-06
6.15117001384798e-06
6.15116974913789e-06
6.15116911609959e-06
6.15116719757582e-06
6.15116103267872e-06
6.15114143599658e-06
6.15108111603201e-06
6.15090267701338e-06
6.15039742893357e-06
6.14903264718055e-06
6.14552726349434e-06
6.13699569703004e-06
6.11739002599136e-06
6.07500675832431e-06
5.9891278188028e-06
5.82657960221015e-06
5.54002551490238e-06
5.0705933879462e-06
4.35704249331403e-06
3.35144640732963e-06
2.03778641399867e-06
6.17535727401573e-09
2.35481930367417e-11
2.32840800467409e-11
6.13301535707081e-09
2.0293295620309e-06
3.34105560590783e-06
4.34674452967397e-06
5.06168571716672e-06
5.53302433874919e-06
5.82140983099761e-06
5.98540423352523e-06
6.07227396334661e-06
6.11526202767146e-06
6.13520211641441e-06
6.14390314530582e-06
6.14748790761469e-06
6.1488872603122e-06
6.14940652816541e-06
6.14959021310852e-06
6.14965226534152e-06
6.14967226498261e-06
6.1496783550847e-06
6.14968003636529e-06
6.14968038076986e-06
6.14968034099796e-06
6.14968020215855e-06
6.14968004697012e-06
6.14967989569673e-06
6.14967974803917e-06
6.14967958329506e-06
6.14967932269937e-06
6.14967869278271e-06
6.14967677748268e-06
6.14967061921352e-06
6.14965104173619e-06
6.14959077748139e-06
6.1494124897352e-06
6.14890762647601e-06
6.1475437674803e-06
6.1440404760012e-06
6.13551339737942e-06
6.11591682516562e-06
6.07355096657683e-06
5.98770341045144e-06
5.82520842634195e-06
5.53873923093264e-06
5.0694343721088e-06
4.3560629271179e-06
3.35070499755782e-06
2.03734262339582e-06
6.17412012072814e-09
2.35440896741178e-11
2.32711992006853e-11
6.12940865307997e-09
2.02812731170714e-06
3.33914720249272e-06
4.3443251056129e-06
5.05891829167142e-06
5.53003543701973e-06
5.81828986392791e-06
5.98221238929012e-06
6.06904565947791e-06
6.11201666304711e-06
6.13194939564688e-06
6.14064751509321e-06
6.14423123459167e-06
6.14563026069886e-06
6.1461494510645e-06
6.14633313514116e-06
6.14639520574313e-06
6.1464152263202e-06
6.14642133606637e-06
6.14642303504462e-06
6.14642339504942e-06
6.14642336801653e-06
6.14642323961148e-06
6.14642309370333e-06
6.14642295028835e-06
6.14642280904925e-06
6.14642264932108e-06
6.14642239247685e-06
6.14642176554866e-06
6.14641985414382e-06
6.14641370570142e-06
6.14639415809213e-06
6.14633398122028e-06
6.14615593289719e-06
6.14565168753655e-06
6.14428933862796e-06
6.14078954890578e-06
6.13227017288728e-06
6.11268964760851e-06
6.07035538598411e-06
5.98456650528486e-06
5.82217408897969e-06
5.53587345773451e-06
5.06682894421497e-06
4.35383561113281e-06
3.34899486778932e-06
2.03630030356385e-06
6.17113500560993e-09
2.35339288658312e-11
2.32495576268759e-11
6.12335925913666e-09
2.02610903818016e-06