/*--------------------------------*- C++ -*----------------------------------*\
  =========                 |
  \\      /  F ield         | OpenFOAM: The Open Source CFD Toolbox
   \\    /   O peration     | Website:  https://openfoam.org
    \\  /    A nd           | Version:  10
     \\/     M anipulation  |
\*---------------------------------------------------------------------------*/
FoamFile
{
    format      ascii;
    class       volScalarField;
    location    "5.2";
    object      omega;
}
// * * * * * * * * * * * * * * * * * * * * * * * * * * * * * * * * * * * * * //

dimensions      [0 0 -1 0 0 0 0];

internalField   nonuniform List<scalar> 
2500
(
128094.551735801
128107.019506839
128102.513038738
128099.684094601
128098.169877848
128097.403233181
128097.029138003
128096.853362168
128096.774362792
128096.740971482
128096.726876902
128096.72123943
128096.719029393
128096.717874525
128096.717174863
128096.716557079
128096.716259615
128096.715906361
128096.715512302
128096.71524421
128096.71501268
128096.714811357
128096.71464417
128096.71454545
128096.714438128
128096.714343052
128096.714310257
128096.714292777
128096.714302314
128096.714345579
128096.714420635
128096.714565417
128096.714734235
128096.714948401
128096.715206445
128096.715555993
128096.716117187
128096.717109645
128096.719709346
128096.725739632
128096.740467183
128096.775639029
128096.856419856
128097.033643587
128097.407915767
128098.168608195
128099.674794706
128102.513445474
128107.067281042
128094.508774286
31891.3084039988
14171.7684976321
14169.6381923223
14168.2992680798
14167.5513703333
14167.1535355656
14166.9493931059
14166.8490179542
14166.802103611
14166.7813597873
14166.7726551456
14166.7691944652
14166.7678863579
14166.767399777
14166.7672151626
14166.7671344973
14166.7671001376
14166.7670745654
14166.7670499644
14166.7670312145
14166.7670142018
14166.7669978823
14166.7669837646
14166.7669747434
14166.766966843
14166.7669595169
14166.7669560334
14166.7669535383
14166.7669514047
14166.766952688
14166.7669560907
14166.7669624524
14166.7669776145
14166.7670010762
14166.7670352834
14166.7671122098
14166.7673166587
14166.7678670943
14166.7693424082
14166.7731119599
14166.7823506018
14166.8039206128
14166.8517791258
14166.9527403957
14167.156182945
14167.5511174372
14168.2960110295
14169.6417868119
14171.8001400085
31891.2827724922
31774.8971576545
3529.72030631544
50.8177733589111
50.8115195879469
50.8080496856087
50.8062086308144
50.805264053623
50.8047987005501
50.804580418046
50.8044834083659
50.8044425602595
50.804426271634
50.8044201143456
50.8044178775547
50.8044170833816
50.8044167941055
50.8044166901498
50.8044166348813
50.8044165896136
50.8044165538933
50.8044165185038
50.8044164802848
50.8044164449733
50.804416422254
50.8044164051286
50.8044163886314
50.8044163801354
50.8044163727275
50.8044163627813
50.8044163605649
50.8044163596737
50.8044163622053
50.8044164059549
50.8044164836462
50.8044166020863
50.8044169154407
50.8044178227201
50.804420356537
50.8044271843626
50.804444725338
50.8044877162083
50.8045879256464
50.8048098208388
50.8052772297942
50.8062186944045
50.8080491467037
50.8115135342564
50.8178185243472
3529.73577224521
31775.0140747937
31679.1442307086
3519.03056264705
50.6645062373107
50.658880260086
50.6558646860622
50.6543156042122
50.653542505293
50.6531698338442
50.6529978819757
50.6529223920426
50.6528909089469
50.6528784514539
50.6528737787462
50.6528721040239
50.6528715262928
50.6528713326178
50.6528712724783
50.6528712480896
50.6528712308448
50.6528712165934
50.6528711999251
50.6528711783048
50.6528711561043
50.6528711417068
50.6528711326859
50.6528711238239
50.6528711191119
50.652871114266
50.6528711061821
50.6528711025797
50.6528710982769
50.6528710889881
50.6528711145567
50.6528711674675
50.6528712413276
50.6528714543745
50.6528721015993
50.6528739549081
50.6528790234486
50.6528922263384
50.652925012906
50.6530025135774
50.6531768719203
50.6535511901244
50.6543230271416
50.6558675724073
50.6588893861076
50.6645853230843
3519.0510900952
31679.4307299753
31610.1329316185
3511.49645308167
50.5582429963562
50.5540947665075
50.5519481623994
50.5508809787858
50.5503627800413
50.5501180556432
50.5500067332967
50.5499583115542
50.5499382346975
50.5499303199545
50.549927361716
50.5499263087189
50.5499259524952
50.5499258416777
50.5499258137553
50.5499258068045
50.5499258034146
50.5499258002905
50.5499257948241
50.5499257847076
50.5499257721586
50.5499257639245
50.54992576011
50.5499257564271
50.549925754345
50.549925751687
50.5499257465847
50.5499257433132
50.5499257381878
50.5499257263136
50.5499257387685
50.5499257676801
50.5499258053342
50.5499259288349
50.5499263174931
50.5499274491661
50.5499305802092
50.5499388161945
50.5499594634869
50.5500087959897
50.5501212497864
50.5503668023306
50.5508845963618
50.5519510179083
50.5541092122481
50.558327309011
3511.51709637746
31610.5034469174
31565.7049952157
3506.76824915861
50.492632020264
50.489987814459
50.4886643212474
50.4880264089127
50.4877245504803
50.4875846380423
50.4875217519841
50.48749458098
50.4874833485746
50.4874789242116
50.4874772718292
50.487476685752
50.4874764908609
50.4874764350012
50.4874764252886
50.4874764258627
50.4874764267992
50.487476427142
50.4874764269414
50.4874764236734
50.4874764172822
50.4874764130869
50.4874764121165
50.4874764112263
50.4874764105333
50.4874764092659
50.4874764065822
50.487476404191
50.4874763998704
50.4874763901674
50.4874763949088
50.4874764075759
50.4874764231977
50.48747648754
50.4874766955315
50.4874773068779
50.4874790139438
50.4874835339561
50.4874949367129
50.4875223899812
50.4875856181451
50.4877257090239
50.4880272400972
50.4886654057096
50.4899993682204
50.4926992888094
3506.78512271541
31566.0576426995
31539.7775506034
3504.08354692628
50.4559638780832
50.4544621654428
50.4537333039315
50.4533919333867
50.4532342406218
50.4531623901707
50.4531304238975
50.4531166773257
50.4531109995001
50.4531087603987
50.4531079232785
50.4531076270208
50.4531075302742
50.4531075055182
50.453107503567
50.4531075055462
50.4531075076797
50.4531075085174
50.4531075092952
50.4531075090204
50.4531075061446
50.453107504339
50.4531075046225
50.4531075046347
50.4531075044171
50.4531075040197
50.4531075027676
50.4531075012465
50.4531074982738
50.4531074918811
50.4531074929969
50.4531074969503
50.4531075018914
50.4531075331692
50.4531076351632
50.4531079358206
50.4531087817978
50.4531110308985
50.4531167247206
50.4531305003195
50.453162473954
50.4532341949102
50.4533914657882
50.4537328840265
50.4544685354083
50.4560076085393
3504.09527036631
31540.0520118508
31525.8980220774
3502.68674356036
50.437175699643
50.4364004475327
50.4360346579882
50.435867797418
50.435792427806
50.4357586260101
50.4357437205097
50.4357373314691
50.4357346909116
50.4357336468992
50.4357332557227
50.4357331175362
50.435733073539
50.4357330635579
50.4357330637116
50.4357330655256
50.4357330673066
50.4357330682706
50.4357330688403
50.4357330689865
50.4357330680594
50.4357330675322
50.4357330680714
50.4357330683253
50.4357330682664
50.4357330680762
50.4357330675268
50.4357330666562
50.4357330648964
50.4357330614371
50.4357330611214
50.4357330615276
50.4357330627553
50.43573307695
50.4357331232925
50.4357332603436
50.4357336484307
50.4357346821813
50.4357373021765
50.4357436565869
50.4357584861367
50.4357920950267
50.4358670428578
50.4360336316262
50.4364028783045
50.4371999084516
3502.693880448
31526.0818905209
31519.0155949999
3502.01392054235
50.4282579090305
50.4278887643611
50.4277190491919
50.4276434838565
50.427610059029
50.4275952889675
50.4275888271615
50.4275860634925
50.4275849193724
50.4275844654313
50.4275842948561
50.4275842347171
50.4275842160942
50.427584212396
50.4275842129181
50.427584214114
50.4275842152407
50.4275842159313
50.4275842162571
50.4275842163773
50.4275842162214
50.4275842162472
50.4275842166067
50.4275842168285
50.4275842167988
50.4275842166943
50.4275842164657
50.4275842160012
50.4275842150761
50.4275842134414
50.4275842130773
50.4275842129747
50.427584213028
50.4275842186589
50.4275842382747
50.4275842969063
50.4275844637929
50.4275849083949
50.4275860341767
50.4275887654496
50.4275951612738
50.4276097794178
50.427642875568
50.4277180656842
50.4278891787684
50.4282696118385
3502.0178108703
31519.1249114271
31515.8284295898
3501.71129548757
50.4243034609633
50.4241395122647
50.4240659162388
50.4240338689435
50.4240199684793
50.4240139113614
50.4240112805009
50.4240101569669
50.4240096907423
50.4240095050123
50.4240094349959
50.4240094103686
50.4240094029884
50.4240094017318
50.424009402104
50.4240094027639
50.4240094033743
50.4240094037764
50.4240094039926
50.4240094041
50.4240094041115
50.424009404197
50.4240094043874
50.4240094045103
50.4240094044988
50.424009404448
50.4240094043417
50.4240094041104
50.4240094036645
50.4240094029334
50.4240094026683
50.424009402511
50.4240094023774
50.4240094044718
50.4240094122952
50.4240094360674
50.4240095039689
50.4240096846203
50.4240101408324
50.4240112459224
50.4240138377446
50.4240198016682
50.4240334889774
50.4240652201927
50.4241392321462
50.4243084675928
3501.71322518155
31515.8872997527
31514.4405912911
3501.58328980899
50.4226538112025
50.4225852885608
50.4225552017395
50.4225423659744
50.4225368996714
50.422534549241
50.422533535233
50.4225331026329
50.4225329226238
50.4225328506029
50.4225328233626
50.4225328138086
50.4225328110343
50.4225328106403
50.4225328108526
50.422532811176
50.4225328114719
50.4225328116768
50.4225328117994
50.4225328118664
50.4225328118984
50.4225328119585
50.4225328120455
50.4225328121005
50.4225328120941
50.4225328120684
50.4225328120176
50.4225328119077
50.4225328117061
50.4225328113926
50.4225328112383
50.422532811129
50.42253281103
50.4225328117599
50.422532814722
50.422532823921
50.4225328502476
50.4225329201107
50.4225330958221
50.4225335201021
50.4225345150896
50.422536816469
50.422542162397
50.4225547893438
50.4225849277027
50.4226557128007
3501.58417162778
31514.4697347487
31513.8691021268
3501.53207658197
50.4220027898029
50.4219756440261
50.4219639673236
50.4219590788367
50.4219570324188
50.4219561636089
50.4219557912018
50.4219556324449
50.4219555661899
50.4219555395652
50.4219555294625
50.4219555259301
50.4219555249343
50.4219555248215
50.4219555249257
50.4219555250696
50.4219555252004
50.421955525294
50.4219555253538
50.4219555253882
50.4219555254088
50.4219555254383
50.421955525473
50.4219555254931
50.4219555254877
50.4219555254738
50.4219555254487
50.4219555253976
50.4219555253103
50.4219555251804
50.4219555251016
50.4219555250404
50.4219555249886
50.4219555252258
50.4219555262957
50.42195552971
50.4219555394904
50.4219555653562
50.4219556300773
50.421955785655
50.4219561499361
50.4219569956172
50.4219589810452
50.4219637517221
50.4219753871321
50.4220034243803
3501.53245143548
31513.8825137797
31513.6455878108
3501.51261407916
50.4217587904028
50.4217485366384
50.4217442096407
50.4217424293608
50.4217416959392
50.4217413883236
50.4217412572863
50.4217412014622
50.421741178096
50.4217411686661
50.4217411650768
50.4217411638263
50.421741163486
50.4217411634559
50.421741163498
50.4217411635563
50.4217411636088
50.4217411636469
50.4217411636719
50.4217411636862
50.4217411636948
50.4217411637057
50.4217411637166
50.4217411637215
50.4217411637162
50.4217411637077
50.4217411636943
50.4217411636703
50.4217411636327
50.4217411635796
50.4217411635418
50.4217411635104
50.4217411634843
50.4217411635546
50.4217411639251
50.4217411651444
50.4217411686396
50.4217411778493
50.421741200761
50.421741255536
50.4217413834323
50.4217416810288
50.4217423861481
50.4217441072217
50.4217483907792
50.4217589693707
3501.51276345515
31513.6513759778
31513.5623733255
3501.5055781386
50.4216718740372
50.4216681628781
50.4216666245141
50.4216660016486
50.4216657488399
50.4216656440265
50.4216655996492
50.4216655807571
50.4216655728275
50.4216655696145
50.4216655683878
50.4216655679619
50.4216655678487
50.4216655678403
50.4216655678559
50.4216655678769
50.4216655678953
50.4216655679083
50.4216655679164
50.4216655679202
50.4216655679216
50.4216655679234
50.4216655679247
50.4216655679235
50.4216655679185
50.4216655679122
50.421665567904
50.4216655678918
50.4216655678748
50.4216655678523
50.421665567834
50.4216655678178
50.4216655678045
50.421665567822
50.4216655679436
50.421665568362
50.4216655695659
50.4216655727293
50.4216655805541
50.421665599149
50.4216656424049
50.4216657431622
50.42166598376
50.421666579446
50.4216680905331
50.4216719112359
3501.50563428514
31513.564732738
31513.532965718
3501.50317193242
50.4216426738562
50.4216413815661
50.4216408547201
50.4216406445409
50.4216405604034
50.4216405259031
50.4216405113838
50.4216405052086
50.4216405026106
50.4216405015542
50.4216405011496
50.4216405010093
50.4216405009721
50.4216405009688
50.4216405009732
50.4216405009789
50.4216405009836
50.4216405009861
50.4216405009868
50.4216405009858
50.4216405009838
50.4216405009818
50.4216405009793
50.421640500976
50.4216405009713
50.4216405009661
50.4216405009603
50.4216405009529
50.421640500944
50.4216405009332
50.4216405009235
50.4216405009143
50.4216405009063
50.4216405009079
50.4216405009445
50.4216405010811
50.4216405014801
50.4216405025292
50.4216405051131
50.4216405112184
50.421640525361
50.4216405583063
50.4216406374894
50.4216408360796
50.4216413489415
50.421642675295
3501.50319193708
31513.5338794334
31513.523279783
3501.50241550946
50.421633755596
50.4216333211617
50.4216331467705
50.4216330781456
50.4216330510243
50.4216330400208
50.4216330354188
50.4216330334647
50.4216330326415
50.4216330323059
50.421633032177
50.421633032132
50.4216330321194
50.4216330321172
50.421633032117
50.421633032117
50.4216330321164
50.4216330321149
50.4216330321127
50.4216330321098
50.4216330321064
50.421633032103
50.4216330320993
50.4216330320953
50.4216330320909
50.4216330320863
50.4216330320815
50.4216330320762
50.4216330320705
50.4216330320641
50.4216330320579
50.4216330320518
50.421633032046
50.4216330320432
50.4216330320517
50.4216330320925
50.421633032218
50.4216330325526
50.421633033377
50.421633035318
50.421633039798
50.4216330502306
50.4216330754441
50.4216331394243
50.4216333074665
50.4216337515565
3501.50242229098
31513.5236175936
31513.5205301931
3501.5022236572
50.4216316805687
50.4216315391691
50.4216314832197
50.421631461483
50.4216314529962
50.4216314495896
50.4216314481752
50.4216314475768
50.421631447325
50.4216314472224
50.4216314471828
50.4216314471685
50.4216314471636
50.4216314471615
50.4216314471598
50.4216314471578
50.4216314471553
50.4216314471525
50.4216314471492
50.4216314471456
50.4216314471418
50.421631447138
50.421631447134
50.42163144713
50.4216314471259
50.4216314471217
50.4216314471174
50.4216314471131
50.4216314471086
50.4216314471039
50.4216314470993
50.4216314470946
50.4216314470899
50.421631447086
50.4216314470855
50.4216314470949
50.4216314471305
50.421631447231
50.421631447483
50.4216314480787
50.4216314494533
50.4216314526567
50.4216314604408
50.4216314804117
50.421631533717
50.4216316775426
3501.50222584923
31513.5206499043
31513.5201297781
3501.50221798934
50.4216318299988
50.4216317853347
50.4216317678983
50.4216317612076
50.4216317586273
50.4216317576043
50.4216317571842
50.4216317570082
50.4216317569349
50.4216317569052
50.4216317568936
50.4216317568889
50.4216317568865
50.4216317568844
50.4216317568822
50.4216317568795
50.4216317568765
50.4216317568732
50.4216317568697
50.421631756866
50.4216317568622
50.4216317568583
50.4216317568544
50.4216317568505
50.4216317568466
50.4216317568428
50.4216317568389
50.4216317568351
50.4216317568312
50.4216317568273
50.4216317568233
50.4216317568194
50.4216317568153
50.4216317568114
50.4216317568082
50.4216317568077
50.4216317568148
50.4216317568411
50.4216317569124
50.4216317570862
50.4216317574919
50.4216317584434
50.4216317607741
50.4216317668232
50.4216317832298
50.4216318283942
3501.50221866412
31513.5201705684
31513.5204978198
3501.50227167116
50.4216326781175
50.4216326644013
50.4216326591155
50.4216326571139
50.4216326563535
50.4216326560578
50.4216326559392
50.421632655891
50.4216326558716
50.421632655864
50.4216326558609
50.4216326558591
50.4216326558574
50.4216326558554
50.421632655853
50.4216326558502
50.4216326558471
50.4216326558438
50.4216326558402
50.4216326558367
50.4216326558329
50.4216326558292
50.4216326558255
50.4216326558218
50.4216326558182
50.4216326558146
50.4216326558111
50.4216326558076
50.4216326558042
50.4216326558007
50.4216326557973
50.4216326557937
50.4216326557901
50.4216326557864
50.4216326557826
50.4216326557793
50.4216326557778
50.4216326557814
50.4216326557976
50.4216326558429
50.4216326559548
50.4216326562249
50.4216326568987
50.4216326586757
50.4216326635816
50.4216326773584
3501.50227186674
31513.5205112029
31513.5211093083
3501.50234368868
50.4216337388425
50.4216337347437
50.4216337331854
50.4216337326057
50.421633732391
50.4216337323112
50.4216337322813
50.4216337322705
50.4216337322668
50.4216337322656
50.4216337322649
50.4216337322639
50.4216337322624
50.4216337322604
50.421633732258
50.4216337322552
50.4216337322522
50.4216337322489
50.4216337322455
50.4216337322421
50.4216337322386
50.4216337322351
50.4216337322316
50.4216337322281
50.4216337322248
50.4216337322215
50.4216337322182
50.4216337322151
50.421633732212
50.4216337322089
50.4216337322058
50.4216337322027
50.4216337321995
50.421633732196
50.4216337321924
50.4216337321886
50.4216337321848
50.421633732182
50.4216337321821
50.4216337321897
50.4216337322153
50.421633732285
50.4216337324695
50.4216337329727
50.421633734397
50.4216337384828
3501.50234373962
31513.5211135293
31513.5217956642
3501.5024212092
50.4216348623894
50.421634861199
50.4216348607542
50.4216348605942
50.4216348605387
50.4216348605208
50.421634860516
50.4216348605155
50.421634860516
50.4216348605164
50.4216348605162
50.4216348605154
50.421634860514
50.421634860512
50.4216348605096
50.4216348605069
50.4216348605039
50.4216348605008
50.4216348604976
50.4216348604943
50.421634860491
50.4216348604877
50.4216348604844
50.4216348604813
50.4216348604782
50.4216348604751
50.4216348604723
50.4216348604694
50.4216348604666
50.4216348604639
50.4216348604612
50.4216348604584
50.4216348604556
50.4216348604525
50.4216348604492
50.4216348604456
50.4216348604416
50.4216348604373
50.4216348604332
50.4216348604304
50.4216348604319
50.4216348604448
50.4216348604892
50.4216348606233
50.4216348610223
50.4216348621988
3501.50242121843
31513.5217969263
31513.5225044174
3501.50250033751
50.4216360039991
50.4216360036655
50.4216360035447
50.4216360035049
50.421636003494
50.4216360034929
50.4216360034946
50.4216360034965
50.4216360034979
50.4216360034985
50.4216360034983
50.4216360034974
50.4216360034959
50.421636003494
50.4216360034916
50.4216360034889
50.4216360034861
50.4216360034831
50.42163600348
50.4216360034769
50.4216360034738
50.4216360034707
50.4216360034678
50.4216360034648
50.421636003462
50.4216360034593
50.4216360034567
50.4216360034542
50.4216360034518
50.4216360034494
50.4216360034471
50.4216360034447
50.4216360034422
50.4216360034396
50.4216360034367
50.4216360034335
50.4216360034298
50.4216360034256
50.4216360034209
50.4216360034159
50.4216360034113
50.4216360034092
50.4216360034153
50.4216360034459
50.4216360035513
50.4216360038776
3501.50250033554
31513.5225047593
31513.5232197008
3501.50257992393
50.4216371506717
50.4216371505839
50.4216371505545
50.4216371505475
50.4216371505482
50.421637150551
50.4216371505537
50.4216371505559
50.4216371505571
50.4216371505575
50.4216371505571
50.4216371505561
50.4216371505546
50.4216371505525
50.4216371505502
50.4216371505476
50.4216371505449
50.421637150542
50.4216371505391
50.4216371505361
50.4216371505333
50.4216371505304
50.4216371505277
50.421637150525
50.4216371505225
50.4216371505201
50.4216371505178
50.4216371505156
50.4216371505136
50.4216371505116
50.4216371505096
50.4216371505076
50.4216371505056
50.4216371505034
50.421637150501
50.4216371504983
50.4216371504951
50.4216371504914
50.4216371504871
50.4216371504822
50.4216371504768
50.4216371504716
50.4216371504681
50.4216371504712
50.4216371504954
50.42163715058
3501.50257991931
31513.5232197646
31513.5239368426
3501.50265963784
50.4216382987298
50.4216382987103
50.4216382987053
50.4216382987065
50.4216382987094
50.4216382987124
50.4216382987149
50.4216382987165
50.4216382987173
50.4216382987174
50.4216382987167
50.4216382987155
50.4216382987138
50.4216382987118
50.4216382987095
50.421638298707
50.4216382987043
50.4216382987016
50.4216382986988
50.4216382986961
50.4216382986934
50.4216382986908
50.4216382986883
50.4216382986859
50.4216382986837
50.4216382986816
50.4216382986796
50.4216382986778
50.4216382986761
50.4216382986744
50.4216382986729
50.4216382986713
50.4216382986697
50.421638298668
50.4216382986661
50.421638298664
50.4216382986614
50.4216382986584
50.4216382986548
50.4216382986506
50.4216382986458
50.4216382986406
50.4216382986357
50.4216382986325
50.4216382986354
50.4216382986537
3501.50265963297
31513.5239368282
31513.5246545014
3501.50273938645
50.4216394471585
50.4216394471569
50.4216394471577
50.4216394471601
50.4216394471627
50.421639447165
50.4216394471667
50.4216394471677
50.421639447168
50.4216394471676
50.4216394471667
50.4216394471653
50.4216394471635
50.4216394471614
50.4216394471591
50.4216394471566
50.4216394471541
50.4216394471515
50.4216394471489
50.4216394471463
50.4216394471438
50.4216394471415
50.4216394471393
50.4216394471371
50.4216394471352
50.4216394471334
50.4216394471318
50.4216394471303
50.4216394471289
50.4216394471277
50.4216394471265
50.4216394471254
50.4216394471242
50.421639447123
50.4216394471216
50.4216394471201
50.4216394471181
50.4216394471159
50.4216394471131
50.4216394471098
50.421639447106
50.4216394471018
50.4216394470975
50.4216394470937
50.421639447092
50.421639447093
3501.50273938196
31513.5246544692
31513.5253723009
3501.50281914431
50.4216405956842
50.4216405956865
50.4216405956879
50.4216405956897
50.4216405956914
50.4216405956927
50.4216405956936
50.4216405956939
50.4216405956936
50.4216405956928
50.4216405956916
50.42164059569
50.4216405956881
50.421640595686
50.4216405956836
50.4216405956812
50.4216405956787
50.4216405956762
50.4216405956738
50.4216405956714
50.4216405956692
50.421640595667
50.421640595665
50.4216405956632
50.4216405956616
50.4216405956601
50.4216405956588
50.4216405956577
50.4216405956566
50.4216405956558
50.421640595655
50.4216405956543
50.4216405956536
50.4216405956529
50.4216405956521
50.4216405956511
50.4216405956499
50.4216405956483
50.4216405956464
50.4216405956441
50.4216405956414
50.4216405956384
50.4216405956352
50.4216405956323
50.4216405956304
50.4216405956277
3501.50281914034
31513.5253722649
31513.5260901378
3501.50289890456
50.4216417442345
50.421641744237
50.4216417442378
50.4216417442385
50.4216417442391
50.4216417442395
50.4216417442395
50.4216417442391
50.4216417442383
50.4216417442371
50.4216417442355
50.4216417442337
50.4216417442316
50.4216417442294
50.4216417442271
50.4216417442246
50.4216417442223
50.4216417442199
50.4216417442176
50.4216417442154
50.4216417442134
50.4216417442114
50.4216417442097
50.4216417442082
50.4216417442068
50.4216417442056
50.4216417442047
50.4216417442039
50.4216417442033
50.4216417442028
50.4216417442025
50.4216417442022
50.421641744202
50.4216417442018
50.4216417442015
50.4216417442011
50.4216417442006
50.4216417441998
50.4216417441988
50.4216417441974
50.4216417441958
50.421641744194
50.4216417441921
50.4216417441904
50.4216417441893
50.4216417441866
3501.50289890112
31513.5260901062
31513.5268079845
3501.50297866542
50.4216428927911
50.4216428927928
50.4216428927925
50.4216428927921
50.4216428927916
50.421642892791
50.4216428927902
50.421642892789
50.4216428927877
50.421642892786
50.4216428927841
50.4216428927821
50.4216428927799
50.4216428927775
50.4216428927752
50.4216428927728
50.4216428927705
50.4216428927682
50.4216428927661
50.4216428927641
50.4216428927622
50.4216428927605
50.4216428927591
50.4216428927578
50.4216428927567
50.4216428927559
50.4216428927553
50.4216428927548
50.4216428927546
50.4216428927545
50.4216428927546
50.4216428927548
50.421642892755
50.4216428927554
50.4216428927556
50.4216428927559
50.421642892756
50.421642892756
50.4216428927558
50.4216428927555
50.4216428927549
50.4216428927542
50.4216428927536
50.4216428927532
50.4216428927533
50.4216428927515
3501.5029786626
31513.5268079575
31513.5275258336
3501.50305842644
50.421644041349
50.4216440413497
50.4216440413483
50.4216440413467
50.4216440413452
50.4216440413437
50.4216440413421
50.4216440413403
50.4216440413383
50.4216440413363
50.421644041334
50.4216440413317
50.4216440413293
50.4216440413269
50.4216440413245
50.4216440413222
50.42164404132
50.4216440413178
50.4216440413158
50.4216440413139
50.4216440413123
50.4216440413108
50.4216440413096
50.4216440413086
50.4216440413078
50.4216440413073
50.421644041307
50.4216440413069
50.421644041307
50.4216440413074
50.4216440413079
50.4216440413085
50.4216440413092
50.4216440413101
50.421644041311
50.4216440413118
50.4216440413127
50.4216440413134
50.4216440413141
50.4216440413147
50.4216440413151
50.4216440413157
50.4216440413162
50.4216440413171
50.4216440413184
50.4216440413177
3501.50305842419
31513.5275258127
31513.5282436834
3501.5031381875
50.4216451899074
50.421645189907
50.4216451899045
50.4216451899018
50.4216451898993
50.4216451898968
50.4216451898943
50.4216451898919
50.4216451898894
50.4216451898869
50.4216451898843
50.4216451898818
50.4216451898792
50.4216451898767
50.4216451898743
50.4216451898719
50.4216451898697
50.4216451898677
50.4216451898658
50.4216451898641
50.4216451898627
50.4216451898615
50.4216451898605
50.4216451898597
50.4216451898593
50.421645189859
50.4216451898591
50.4216451898593
50.4216451898598
50.4216451898606
50.4216451898615
50.4216451898626
50.4216451898638
50.4216451898652
50.4216451898666
50.4216451898681
50.4216451898696
50.4216451898711
50.4216451898727
50.4216451898742
50.4216451898758
50.4216451898774
50.4216451898791
50.4216451898813
50.4216451898837
50.4216451898842
3501.50313818585
31513.5282436676
31513.5289615335
3501.50321794858
50.421646338466
50.4216463384644
50.4216463384608
50.421646338457
50.4216463384535
50.4216463384501
50.4216463384469
50.4216463384438
50.4216463384407
50.4216463384378
50.4216463384348
50.4216463384321
50.4216463384293
50.4216463384267
50.4216463384243
50.4216463384219
50.4216463384198
50.4216463384178
50.421646338416
50.4216463384146
50.4216463384133
50.4216463384123
50.4216463384116
50.4216463384111
50.4216463384109
50.421646338411
50.4216463384113
50.421646338412
50.4216463384128
50.4216463384139
50.4216463384153
50.4216463384168
50.4216463384185
50.4216463384205
50.4216463384225
50.4216463384246
50.4216463384268
50.4216463384291
50.4216463384314
50.4216463384339
50.4216463384365
50.4216463384392
50.4216463384421
50.4216463384455
50.4216463384491
50.4216463384508
3501.50321794744
31513.5289615227
31513.5296793838
3501.50329770968
50.4216474870248
50.4216474870219
50.4216474870173
50.4216474870124
50.421647487008
50.4216474870036
50.4216474869996
50.4216474869959
50.4216474869923
50.4216474869889
50.4216474869857
50.4216474869826
50.4216474869797
50.421647486977
50.4216474869745
50.4216474869721
50.4216474869701
50.4216474869682
50.4216474869666
50.4216474869652
50.4216474869641
50.4216474869634
50.4216474869628
50.4216474869626
50.4216474869627
50.4216474869631
50.4216474869638
50.4216474869648
50.421647486966
50.4216474869675
50.4216474869692
50.4216474869712
50.4216474869735
50.4216474869758
50.4216474869784
50.4216474869812
50.421647486984
50.4216474869871
50.4216474869903
50.4216474869936
50.4216474869972
50.421647487001
50.4216474870051
50.4216474870097
50.4216474870145
50.4216474870175
3501.50329770905
31513.5296793757
31513.5303972345
3501.5033774708
50.421648635584
50.4216486355798
50.421648635574
50.4216486355681
50.4216486355626
50.4216486355574
50.4216486355527
50.4216486355483
50.4216486355442
50.4216486355404
50.4216486355368
50.4216486355335
50.4216486355304
50.4216486355276
50.421648635525
50.4216486355227
50.4216486355207
50.4216486355188
50.4216486355173
50.4216486355162
50.4216486355153
50.4216486355146
50.4216486355144
50.4216486355145
50.4216486355148
50.4216486355155
50.4216486355165
50.4216486355178
50.4216486355194
50.4216486355213
50.4216486355235
50.4216486355259
50.4216486355286
50.4216486355315
50.4216486355346
50.421648635538
50.4216486355415
50.4216486355453
50.4216486355493
50.4216486355535
50.4216486355581
50.421648635563
50.4216486355681
50.421648635574
50.42164863558
50.4216486355843
3501.50337747075
31513.5303972322
31513.5311150854
3501.50345723197
50.4216497841435
50.421649784138
50.421649784131
50.421649784124
50.4216497841175
50.4216497841115
50.421649784106
50.421649784101
50.4216497840964
50.4216497840921
50.4216497840882
50.4216497840847
50.4216497840814
50.4216497840785
50.4216497840759
50.4216497840735
50.4216497840715
50.4216497840698
50.4216497840684
50.4216497840674
50.4216497840667
50.4216497840663
50.4216497840662
50.4216497840665
50.4216497840672
50.4216497840681
50.4216497840694
50.4216497840711
50.421649784073
50.4216497840753
50.4216497840779
50.4216497840807
50.4216497840839
50.4216497840873
50.421649784091
50.4216497840949
50.4216497840991
50.4216497841036
50.4216497841084
50.4216497841135
50.421649784119
50.4216497841249
50.4216497841312
50.4216497841383
50.4216497841455
50.4216497841512
3501.50345723246
31513.5311150889
31513.5318329369
3501.50353699317
50.4216509327035
50.4216509326965
50.4216509326883
50.4216509326802
50.4216509326727
50.4216509326659
50.4216509326597
50.4216509326541
50.421650932649
50.4216509326443
50.4216509326401
50.4216509326363
50.4216509326329
50.4216509326298
50.4216509326272
50.4216509326248
50.4216509326228
50.4216509326212
50.4216509326199
50.421650932619
50.4216509326185
50.4216509326183
50.4216509326184
50.4216509326189
50.4216509326199
50.4216509326211
50.4216509326227
50.4216509326247
50.421650932627
50.4216509326296
50.4216509326325
50.4216509326358
50.4216509326394
50.4216509326433
50.4216509326475