/*--------------------------------*- C++ -*----------------------------------*\
  =========                 |
  \\      /  F ield         | OpenFOAM: The Open Source CFD Toolbox
   \\    /   O peration     | Website:  https://openfoam.org
    \\  /    A nd           | Version:  10
     \\/     M anipulation  |
\*---------------------------------------------------------------------------*/
FoamFile
{
    format      ascii;
    class       volScalarField;
    location    "5.2";
    object      p;
}
// * * * * * * * * * * * * * * * * * * * * * * * * * * * * * * * * * * * * * //

dimensions      [1 -1 -2 0 0 0 0];

internalField   nonuniform List<scalar> 
2500
(
100088.357461526
100088.357462714
100088.357463709
100088.357464535
100088.35746504
100088.357465366
100088.357465559
100088.357465677
100088.35746575
100088.357465797
100088.35746583
100088.357465855
100088.357465877
100088.357465897
100088.357465918
100088.357465938
100088.35746596
100088.357465982
100088.357466006
100088.357466031
100088.357466056
100088.357466083
100088.35746611
100088.357466138
100088.357466167
100088.357466196
100088.357466225
100088.357466254
100088.357466283
100088.357466312
100088.357466341
100088.35746637
100088.357466397
100088.357466424
100088.35746645
100088.357466474
100088.357466496
100088.357466515
100088.35746653
100088.357466538
100088.357466536
100088.357466516
100088.357466467
100088.35746637
100088.357466195
100088.357465883
100088.357465388
100088.357464563
100088.357463556
100088.357462366
100088.355214094
100088.355215011
100088.355215788
100088.355216492
100088.355216933
100088.355217226
100088.355217403
100088.355217512
100088.35521758
100088.355217624
100088.355217656
100088.355217681
100088.355217703
100088.355217724
100088.355217744
100088.355217765
100088.355217787
100088.355217809
100088.355217833
100088.355217858
100088.355217884
100088.35521791
100088.355217938
100088.355217966
100088.355217994
100088.355218023
100088.355218052
100088.355218082
100088.355218111
100088.35521814
100088.355218169
100088.355218197
100088.355218224
100088.355218251
100088.355218277
100088.355218301
100088.355218323
100088.355218342
100088.355218357
100088.355218365
100088.355218364
100088.355218347
100088.355218302
100088.355218214
100088.355218055
100088.355217776
100088.355217344
100088.355216642
100088.355215855
100088.355214939
100088.352957016
100088.352957617
100088.352958025
100088.352958487
100088.352958782
100088.352958992
100088.352959123
100088.352959208
100088.352959263
100088.352959302
100088.352959331
100088.352959355
100088.352959376
100088.352959396
100088.352959417
100088.352959438
100088.352959459
100088.352959482
100088.352959506
100088.352959531
100088.352959556
100088.352959583
100088.352959611
100088.352959639
100088.352959667
100088.352959696
100088.352959725
100088.352959755
100088.352959784
100088.352959813
100088.352959842
100088.35295987
100088.352959897
100088.352959924
100088.352959949
100088.352959973
100088.352959995
100088.352960014
100088.35296003
100088.35296004
100088.352960042
100088.352960031
100088.35296
100088.352959936
100088.352959822
100088.352959625
100088.352959339
100088.35295888
100088.352958465
100088.352957857
100088.350692141
100088.35069238
100088.350692453
100088.350692648
100088.350692776
100088.350692886
100088.350692961
100088.350693015
100088.350693055
100088.350693086
100088.350693111
100088.350693133
100088.350693153
100088.350693173
100088.350693193
100088.350693214
100088.350693236
100088.350693259
100088.350693283
100088.350693307
100088.350693333
100088.35069336
100088.350693387
100088.350693415
100088.350693444
100088.350693473
100088.350693502
100088.350693531
100088.350693561
100088.35069359
100088.350693618
100088.350693646
100088.350693674
100088.3506937
100088.350693726
100088.35069375
100088.350693772
100088.350693792
100088.350693808
100088.35069382
100088.350693826
100088.350693823
100088.350693808
100088.350693774
100088.350693716
100088.35069362
100088.350693501
100088.35069331
100088.350693235
100088.350692985
100088.348421307
100088.348421261
100088.348421127
100088.348421124
100088.348421128
100088.348421158
100088.348421187
100088.348421216
100088.348421241
100088.348421264
100088.348421285
100088.348421305
100088.348421324
100088.348421343
100088.348421363
100088.348421384
100088.348421406
100088.348421428
100088.348421452
100088.348421477
100088.348421503
100088.34842153
100088.348421557
100088.348421585
100088.348421614
100088.348421643
100088.348421672
100088.348421701
100088.34842173
100088.348421759
100088.348421788
100088.348421816
100088.348421843
100088.34842187
100088.348421895
100088.348421919
100088.348421942
100088.348421962
100088.34842198
100088.348421994
100088.348422004
100088.348422009
100088.348422008
100088.348422001
100088.348421989
100088.348421973
100088.348421979
100088.348421987
100088.348422125
100088.348422161
100088.346146364
100088.346146155
100088.346145925
100088.346145802
100088.346145728
100088.346145704
100088.346145701
100088.346145709
100088.346145723
100088.346145739
100088.346145756
100088.346145773
100088.346145791
100088.34614581
100088.34614583
100088.34614585
100088.346145872
100088.346145894
100088.346145918
100088.346145943
100088.346145969
100088.346145996
100088.346146023
100088.346146051
100088.34614608
100088.346146108
100088.346146137
100088.346146167
100088.346146196
100088.346146224
100088.346146253
100088.346146281
100088.346146308
100088.346146335
100088.34614636
100088.346146385
100088.346146408
100088.346146429
100088.346146448
100088.346146464
100088.346146478
100088.34614649
100088.346146501
100088.346146514
100088.346146535
100088.346146573
100088.346146659
100088.346146789
100088.346147026
100088.346147231
100088.343868909
100088.343868645
100088.343868397
100088.343868218
100088.343868105
100088.343868048
100088.343868024
100088.343868018
100088.343868023
100088.343868033
100088.343868047
100088.343868062
100088.343868079
100088.343868096
100088.343868115
100088.343868136
100088.343868157
100088.34386818
100088.343868203
100088.343868228
100088.343868254
100088.343868281
100088.343868308
100088.343868336
100088.343868365
100088.343868393
100088.343868422
100088.343868451
100088.34386848
100088.343868509
100088.343868538
100088.343868565
100088.343868593
100088.343868619
100088.343868645
100088.34386867
100088.343868693
100088.343868715
100088.343868735
100088.343868754
100088.343868771
100088.343868789
100088.343868809
100088.343868836
100088.343868879
100088.34386895
100088.343869075
100088.343869263
100088.343869519
100088.343869785
100088.341590073
100088.341589823
100088.341589598
100088.341589406
100088.341589281
100088.341589207
100088.34158917
100088.341589155
100088.341589153
100088.341589158
100088.341589168
100088.341589181
100088.341589197
100088.341589214
100088.341589232
100088.341589252
100088.341589273
100088.341589296
100088.341589319
100088.341589344
100088.34158937
100088.341589396
100088.341589424
100088.341589452
100088.34158948
100088.341589509
100088.341589538
100088.341589567
100088.341589595
100088.341589624
100088.341589652
100088.34158968
100088.341589708
100088.341589734
100088.34158976
100088.341589785
100088.341589809
100088.341589831
100088.341589853
100088.341589874
100088.341589895
100088.341589917
100088.341589944
100088.341589981
100088.341590036
100088.341590125
100088.341590263
100088.341590464
100088.341590698
100088.341590953
100088.339310553
100088.339310346
100088.339310157
100088.339309977
100088.339309854
100088.339309775
100088.339309731
100088.339309709
100088.339309702
100088.339309704
100088.339309711
100088.339309722
100088.339309736
100088.339309752
100088.33930977
100088.33930979
100088.33930981
100088.339309833
100088.339309856
100088.339309881
100088.339309907
100088.339309933
100088.33930996
100088.339309988
100088.339310017
100088.339310045
100088.339310074
100088.339310103
100088.339310132
100088.33931016
100088.339310188
100088.339310216
100088.339310243
100088.33931027
100088.339310296
100088.339310321
100088.339310345
100088.339310369
100088.339310392
100088.339310414
100088.339310438
100088.339310465
100088.339310496
100088.33931054
100088.339310602
100088.339310696
100088.339310832
100088.339311022
100088.339311219
100088.339311433
100088.337030727
100088.337030568
100088.337030416
100088.337030258
100088.337030145
100088.337030067
100088.33703002
100088.337029994
100088.337029983
100088.337029982
100088.337029987
100088.337029996
100088.337030009
100088.337030024
100088.337030042
100088.337030061
100088.337030082
100088.337030104
100088.337030127
100088.337030152
100088.337030177
100088.337030204
100088.337030231
100088.337030258
100088.337030287
100088.337030315
100088.337030344
100088.337030373
100088.337030401
100088.33703043
100088.337030458
100088.337030486
100088.337030513
100088.337030539
100088.337030565
100088.337030591
100088.337030615
100088.33703064
100088.337030664
100088.337030688
100088.337030714
100088.337030744
100088.337030779
100088.337030827
100088.337030892
100088.337030985
100088.337031111
100088.337031279
100088.337031438
100088.337031603
100088.334750781
100088.334750663
100088.334750544
100088.334750409
100088.334750309
100088.334750236
100088.334750189
100088.334750161
100088.334750148
100088.334750144
100088.334750147
100088.334750155
100088.334750167
100088.334750182
100088.334750198
100088.334750217
100088.334750238
100088.33475026
100088.334750283
100088.334750307
100088.334750333
100088.334750359
100088.334750386
100088.334750414
100088.334750442
100088.33475047
100088.334750499
100088.334750527
100088.334750556
100088.334750584
100088.334750612
100088.33475064
100088.334750667
100088.334750694
100088.33475072
100088.334750745
100088.33475077
100088.334750795
100088.33475082
100088.334750846
100088.334750874
100088.334750905
100088.334750943
100088.334750993
100088.334751058
100088.334751147
100088.33475126
100088.334751404
100088.334751529
100088.334751652
100088.332470797
100088.332470711
100088.332470618
100088.332470506
100088.332470419
100088.332470351
100088.332470307
100088.332470278
100088.332470264
100088.332470258
100088.33247026
100088.332470267
100088.332470278
100088.332470292
100088.332470308
100088.332470326
100088.332470347
100088.332470368
100088.332470391
100088.332470416
100088.332470441
100088.332470467
100088.332470494
100088.332470522
100088.33247055
100088.332470578
100088.332470606
100088.332470635
100088.332470663
100088.332470691
100088.332470719
100088.332470747
100088.332470774
100088.3324708
100088.332470826
100088.332470852
100088.332470878
100088.332470903
100088.332470929
100088.332470956
100088.332470985
100088.332471018
100088.332471057
100088.332471108
100088.332471171
100088.332471254
100088.332471353
100088.332471474
100088.332471572
100088.332471662
100088.330190806
100088.330190743
100088.330190671
100088.330190579
100088.330190504
100088.330190443
100088.330190402
100088.330190374
100088.330190359
100088.330190353
100088.330190354
100088.33019036
100088.33019037
100088.330190383
100088.330190399
100088.330190417
100088.330190437
100088.330190458
100088.330190481
100088.330190506
100088.330190531
100088.330190557
100088.330190584
100088.330190611
100088.330190639
100088.330190667
100088.330190695
100088.330190723
100088.330190752
100088.33019078
100088.330190807
100088.330190835
100088.330190862
100088.330190888
100088.330190914
100088.33019094
100088.330190966
100088.330190992
100088.330191018
100088.330191046
100088.330191076
100088.33019111
100088.33019115
100088.330191199
100088.330191259
100088.330191336
100088.330191422
100088.330191523
100088.3301916
100088.330191666
100088.327910819
100088.327910773
100088.327910717
100088.327910641
100088.327910578
100088.327910524
100088.327910486
100088.32791046
100088.327910445
100088.327910438
100088.327910439
100088.327910444
100088.327910454
100088.327910467
100088.327910482
100088.3279105
100088.32791052
100088.327910541
100088.327910564
100088.327910588
100088.327910613
100088.327910639
100088.327910666
100088.327910693
100088.32791072
100088.327910748
100088.327910776
100088.327910805
100088.327910833
100088.32791086
100088.327910888
100088.327910915
100088.327910942
100088.327910968
100088.327910994
100088.32791102
100088.327911046
100088.327911072
100088.327911099
100088.327911127
100088.327911157
100088.327911192
100088.327911231
100088.327911279
100088.327911336
100088.327911405
100088.32791148
100088.327911564
100088.327911625
100088.327911674
100088.32563084
100088.325630805
100088.325630761
100088.325630699
100088.325630646
100088.325630599
100088.325630565
100088.32563054
100088.325630526
100088.32563052
100088.32563052
100088.325630525
100088.325630534
100088.325630547
100088.325630562
100088.32563058
100088.325630599
100088.32563062
100088.325630643
100088.325630667
100088.325630692
100088.325630718
100088.325630744
100088.325630771
100088.325630799
100088.325630827
100088.325630854
100088.325630882
100088.32563091
100088.325630938
100088.325630965
100088.325630992
100088.325631019
100088.325631045
100088.325631071
100088.325631097
100088.325631123
100088.325631149
100088.325631176
100088.325631204
100088.325631235
100088.325631269
100088.325631308
100088.325631353
100088.325631406
100088.325631469
100088.325631534
100088.325631603
100088.325631652
100088.325631688
100088.323350866
100088.32335084
100088.323350805
100088.323350755
100088.323350711
100088.32335067
100088.323350639
100088.323350617
100088.323350604
100088.323350598
100088.323350599
100088.323350604
100088.323350613
100088.323350625
100088.32335064
100088.323350658
100088.323350677
100088.323350698
100088.323350721
100088.323350745
100088.323350769
100088.323350795
100088.323350821
100088.323350848
100088.323350876
100088.323350903
100088.323350931
100088.323350958
100088.323350986
100088.323351013
100088.32335104
100088.323351067
100088.323351094
100088.32335112
100088.323351146
100088.323351172
100088.323351197
100088.323351223
100088.32335125
100088.323351278
100088.323351309
100088.323351342
100088.32335138
100088.323351423
100088.323351472
100088.323351528
100088.323351584
100088.323351642
100088.323351682
100088.323351709
100088.321070898
100088.321070879
100088.321070851
100088.32107081
100088.321070773
100088.321070738
100088.321070711
100088.321070692
100088.32107068
100088.321070675
100088.321070676
100088.321070681
100088.32107069
100088.321070702
100088.321070717
100088.321070734
100088.321070754
100088.321070775
100088.321070797
100088.321070821
100088.321070846
100088.321070871
100088.321070897
100088.321070924
100088.321070951
100088.321070979
100088.321071006
100088.321071033
100088.321071061
100088.321071088
100088.321071115
100088.321071141
100088.321071168
100088.321071194
100088.321071219
100088.321071245
100088.32107127
100088.321071296
100088.321071323
100088.321071351
100088.321071381
100088.321071413
100088.321071449
100088.32107149
100088.321071535
100088.321071585
100088.321071634
100088.321071682
100088.321071714
100088.321071736
100088.318790934
100088.318790919
100088.318790897
100088.318790864
100088.318790833
100088.318790804
100088.318790781
100088.318790764
100088.318790754
100088.31879075
100088.318790751
100088.318790757
100088.318790766
100088.318790778
100088.318790793
100088.318790811
100088.31879083
100088.318790851
100088.318790873
100088.318790897
100088.318790921
100088.318790947
100088.318790973
100088.318790999
100088.318791026
100088.318791053
100088.318791081
100088.318791108
100088.318791135
100088.318791162
100088.318791188
100088.318791215
100088.318791241
100088.318791266
100088.318791292
100088.318791317
100088.318791342
100088.318791368
100088.318791394
100088.318791422
100088.318791451
100088.318791482
100088.318791517
100088.318791555
100088.318791596
100088.31879164
100088.318791683
100088.318791723
100088.318791749
100088.318791766
100088.316510974
100088.316510962
100088.316510945
100088.316510918
100088.316510893
100088.316510869
100088.316510849
100088.316510835
100088.316510827
100088.316510824
100088.316510826
100088.316510832
100088.316510841
100088.316510854
100088.316510869
100088.316510886
100088.316510905
100088.316510926
100088.316510948
100088.316510972
100088.316510996
100088.316511022
100088.316511048
100088.316511074
100088.316511101
100088.316511128
100088.316511154
100088.316511181
100088.316511208
100088.316511235
100088.316511261
100088.316511287
100088.316511313
100088.316511338
100088.316511363
100088.316511388
100088.316511413
100088.316511438
100088.316511464
100088.316511491
100088.316511519
100088.316511549
100088.316511582
100088.316511617
100088.316511655
100088.316511694
100088.316511731
100088.316511765
100088.316511786
100088.3165118
100088.314231016
100088.314231008
100088.314230994
100088.314230973
100088.314230952
100088.314230932
100088.314230916
100088.314230905
100088.314230898
100088.314230897
100088.314230899
100088.314230906
100088.314230915
100088.314230928
100088.314230943
100088.314230961
100088.31423098
100088.314231001
100088.314231023
100088.314231047
100088.314231071
100088.314231096
100088.314231122
100088.314231148
100088.314231175
100088.314231201
100088.314231228
100088.314231255
100088.314231281
100088.314231307
100088.314231333
100088.314231359
100088.314231384
100088.314231409
100088.314231434
100088.314231459
100088.314231483
100088.314231508
100088.314231533
100088.314231559
100088.314231586
100088.314231615
100088.314231646
100088.314231679
100088.314231712
100088.314231747
100088.314231779
100088.314231808
100088.314231826
100088.314231837
100088.311951061
100088.311951055
100088.311951044
100088.311951027
100088.311951011
100088.311950995
100088.311950982
100088.311950973
100088.311950969
100088.311950968
100088.311950972
100088.311950979
100088.311950989
100088.311951002
100088.311951018
100088.311951035
100088.311951055
100088.311951076
100088.311951098
100088.311951121
100088.311951145
100088.31195117
100088.311951196
100088.311951222
100088.311951248
100088.311951275
100088.311951301
100088.311951327
100088.311951354
100088.31195138
100088.311951405
100088.311951431
100088.311951456
100088.31195148
100088.311951505
100088.311951529
100088.311951553
100088.311951577
100088.311951601
100088.311951627
100088.311951653
100088.31195168
100088.311951708
100088.311951738
100088.311951769
100088.3119518
100088.311951828
100088.311951852
100088.311951866
100088.311951875
100088.309671108
100088.309671103
100088.309671095
100088.309671082
100088.30967107
100088.309671057
100088.309671048
100088.309671041
100088.309671038
100088.309671039
100088.309671044
100088.309671052
100088.309671063
100088.309671076
100088.309671092
100088.309671109
100088.309671129
100088.30967115
100088.309671172
100088.309671195
100088.309671219
100088.309671244
100088.30967127
100088.309671295
100088.309671322
100088.309671348
100088.309671374
100088.3096714
100088.309671426
100088.309671452
100088.309671477
100088.309671502
100088.309671526
100088.309671551
100088.309671575
100088.309671598
100088.309671622
100088.309671645
100088.309671669
100088.309671693
100088.309671718
100088.309671743
100088.30967177
100088.309671798
100088.309671825
100088.309671852
100088.309671876
100088.309671896
100088.309671909
100088.309671916
100088.307391156
100088.307391153
100088.307391147
100088.307391138
100088.307391128
100088.307391119
100088.307391112
100088.307391108
100088.307391107
100088.30739111
100088.307391115
100088.307391124
100088.307391135
100088.307391149
100088.307391165
100088.307391183
100088.307391203
100088.307391224
100088.307391246
100088.307391269
100088.307391293
100088.307391318
100088.307391343
100088.307391369
100088.307391395
100088.307391421
100088.307391447
100088.307391472
100088.307391498
100088.307391523
100088.307391548
100088.307391573
100088.307391597
100088.307391621
100088.307391644
100088.307391667
100088.30739169
100088.307391713
100088.307391736
100088.307391759
100088.307391782
100088.307391806
100088.307391831
100088.307391856
100088.307391881
100088.307391904
100088.307391925
100088.307391942
100088.307391952
100088.307391957
100088.305111206
100088.305111204
100088.3051112
100088.305111194
100088.305111187
100088.305111181
100088.305111177
100088.305111175
100088.305111176
100088.305111179
100088.305111186
100088.305111196
100088.305111208
100088.305111222
100088.305111238
100088.305111257
100088.305111276
100088.305111297
100088.30511132
100088.305111343
100088.305111367
100088.305111392
100088.305111417
100088.305111442
100088.305111468
100088.305111493
100088.305111519
100088.305111544
100088.30511157
100088.305111595
100088.305111619
100088.305111643
100088.305111667
100088.30511169
100088.305111713
100088.305111736
100088.305111758
100088.30511178
100088.305111802
100088.305111824
100088.305111846
100088.305111868
100088.305111891
100088.305111914
100088.305111936
100088.305111956
100088.305111974
100088.305111988
100088.305111996
100088.305112
100088.302831256
100088.302831256
100088.302831254
100088.30283125
100088.302831246
100088.302831243
100088.302831241
100088.302831241
100088.302831243
100088.302831249
100088.302831257
100088.302831267
100088.30283128
100088.302831295
100088.302831311
100088.30283133
100088.30283135
100088.302831371
100088.302831393
100088.302831416
100088.30283144
100088.302831465
100088.30283149
100088.302831515
100088.302831541
100088.302831566
100088.302831591
100088.302831616
100088.302831641
100088.302831666
100088.30283169
100088.302831714
100088.302831737
100088.30283176
100088.302831782
100088.302831804
100088.302831825
100088.302831847
100088.302831868
100088.302831888
100088.302831909
100088.30283193
100088.302831951
100088.302831971
100088.302831991
100088.302832009
100088.302832024
100088.302832035
100088.302832041
100088.302832045
100088.300551308
100088.300551309
100088.300551308
100088.300551307
100088.300551305
100088.300551304
100088.300551304
100088.300551307
100088.300551311
100088.300551318
100088.300551327
100088.300551338
100088.300551352
100088.300551367
100088.300551384
100088.300551403
100088.300551423
100088.300551444
100088.300551467
100088.30055149
100088.300551514
100088.300551538
100088.300551563
100088.300551588
100088.300551613
100088.300551638
100088.300551664
100088.300551688
100088.300551713
100088.300551737
100088.300551761
100088.300551784
100088.300551807
100088.300551829
100088.300551851
100088.300551872
100088.300551893
100088.300551913
100088.300551933
100088.300551953
100088.300551972
100088.300551991
100088.30055201
100088.300552028
100088.300552046
100088.300552061
100088.300552073
100088.300552083
100088.300552087
100088.300552089
100088.29827136
100088.298271362
100088.298271363
100088.298271364
100088.298271364
100088.298271366
100088.298271368
100088.298271372
100088.298271378
100088.298271387
100088.298271397
100088.298271409
100088.298271423
100088.298271439
100088.298271457
100088.298271476
100088.298271496
100088.298271518
100088.29827154
100088.298271563
100088.298271587
100088.298271611
100088.298271636
100088.298271661
100088.298271686
100088.298271711
100088.298271736
100088.29827176
100088.298271784
100088.298271808
100088.298271832
100088.298271854
100088.298271877
100088.298271898
100088.298271919
100088.29827194
100088.29827196
100088.298271979
100088.298271998
100088.298272017
100088.298272035
100088.298272052
100088.298272069
100088.298272086
100088.2982721
100088.298272113
100088.298272124
100088.298272131
100088.298272134
100088.298272135
100088.295991413
100088.295991416
100088.295991418
100088.295991421
100088.295991424
100088.295991427
100088.295991432
100088.295991438
100088.295991446
100088.295991455
100088.295991467
100088.29599148
100088.295991495
100088.295991511
100088.295991529
100088.295991549
100088.295991569
100088.295991591
100088.295991613
100088.295991637
100088.29599166
100088.295991685
100088.295991709
100088.295991734
100088.295991759
100088.295991783
100088.295991808
100088.295991832
100088.295991856
100088.295991879
100088.295991902
100088.295991924
100088.295991946
100088.295991967
100088.295991988
100088.295992008
100088.295992027
100088.295992045
100088.295992063
100088.295992081
100088.295992097
100088.295992113
100088.295992129
100088.295992143
100088.295992155
100088.295992166
100088.295992174
100088.295992179
100088.295992181
100088.295992181
100088.293711466
100088.29371147
100088.293711474
100088.293711479
100088.293711484
100088.293711489
100088.293711496
100088.293711504
100088.293711513
100088.293711524
100088.293711536
100088.29371155
100088.293711566
100088.293711583
100088.293711602
100088.293711622
100088.293711642
100088.293711664
100088.293711687
100088.29371171
100088.293711734
100088.293711758
100088.293711782
100088.293711807
100088.293711831
100088.293711856
100088.29371188
100088.293711904
100088.293711927
100088.29371195
100088.293711973
100088.293711995
100088.293712016
100088.293712036
100088.293712056
100088.293712075
100088.293712093
100088.293712111
100088.293712128
100088.293712144
100088.29371216
100088.293712174
100088.293712188
100088.2937122
100088.29371221
100088.293712219
100088.293712225
100088.293712228
100088.293712228
100088.293712228
100088.29143152
100088.291431525
100088.29143153
100088.291431537
100088.291431543
100088.291431551
100088.291431559
100088.291431569
100088.29143158
100088.291431592
100088.291431606
100088.291431621
100088.291431637
100088.291431655
100088.291431674
100088.291431694
100088.291431715
100088.291431737
100088.29143176
100088.291431783
100088.291431807
100088.291431831
100088.291431855
100088.29143188
100088.291431904
100088.291431928
100088.291431952
100088.291431976
100088.291431999
100088.291432021
100088.291432043
100088.291432065
100088.291432085
100088.291432105
100088.291432124
100088.291432143
100088.29143216
100088.291432177
100088.291432193
100088.291432208
100088.291432222
100088.291432235
100088.291432247
100088.291432257
100088.291432266
100088.291432272
100088.291432276
100088.291432277
100088.291432276
100088.291432274
100088.289151574
100088.28915158
100088.289151587
100088.289151595
100088.289151604
100088.289151613
100088.289151623
100088.289151635
100088.289151647
100088.28915166
100088.289151675
100088.289151691
100088.289151709
100088.289151727
100088.289151746
100088.289151767
100088.289151788
100088.28915181
100088.289151833
100088.289151857
100088.28915188
100088.289151904
100088.289151928
100088.289151953
100088.289151977
100088.289152
100088.289152024
100088.289152047
100088.28915207
100088.289152092
100088.289152114
100088.289152135
100088.289152155
100088.289152174
100088.289152193
100088.28915221
100088.289152227
100088.289152243
100088.289152258
100088.289152271
100088.289152284
100088.289152296
100088.289152306
100088.289152314
100088.289152321
100088.289152325
100088.289152328
100088.289152327
100088.289152325
100088.289152322
100088.286871628
100088.286871635
100088.286871643
100088.286871654
100088.286871664
100088.286871676
100088.286871687
100088.2868717
100088.286871714
100088.286871729
100088.286871745
100088.286871762
100088.28687178
100088.286871799
100088.286871819
100088.28687184
100088.286871861
100088.286871884
100088.286871906
100088.28687193
100088.286871954
100088.286871977
100088.286872001
100088.286872025
100088.286872049
100088.286872073
100088.286872096
100088.286872119
100088.286872142
100088.286872163
100088.286872184
100088.286872205
100088.286872224
100088.286872243
100088.286872261
100088.286872278
100088.286872294
100088.286872309
100088.286872322
100088.286872335
100088.286872346
100088.286872356
100088.286872365
100088.286872372
100088.286872377
100088.286872379
100088.28687238
100088.286872377
100088.286872373
100088.286872369
100088.284591682
100088.28459169
100088.2845917
100088.284591713
100088.284591725
100088.284591738
100088.284591752
100088.284591766
100088.284591781
100088.284591797
100088.284591814
100088.284591832
100088.284591851
100088.284591871
100088.284591891
100088.284591912
100088.284591934
100088.284591957
100088.28459198
100088.284592003
100088.284592027
100088.284592051
100088.284592075
100088.284592098
100088.284592122
100088.284592146
100088.284592169
100088.284592191
100088.284592213
100088.284592235
100088.284592255
100088.284592275
100088.284592294
100088.284592312
100088.284592329
100088.284592346
100088.284592361
100088.284592375
100088.284592387
100088.284592399
100088.284592409
100088.284592417
100088.284592424
100088.28459243
100088.284592433
100088.284592433
100088.284592432
100088.284592427
100088.284592422
100088.284592417
100088.282311736
100088.282311746
100088.282311758
100088.282311772
100088.282311786
100088.282311801
100088.282311816
100088.282311832
100088.282311849
100088.282311866
100088.282311884
100088.282311903
100088.282311922
100088.282311942
100088.282311963
100088.282311985
100088.282312007
100088.28231203
100088.282312053
100088.282312077
100088.2823121
100088.282312124
100088.282312148
100088.282312172
100088.282312195
100088.282312218
100088.282312241
100088.282312263
100088.282312285
100088.282312306
100088.282312326
100088.282312346
100088.282312364
100088.282312382
100088.282312398
100088.282312413
100088.282312428
100088.282312441
100088.282312452
100088.282312463
100088.282312472
100088.282312479
100088.282312484
100088.282312488
100088.282312489
100088.282312488
100088.282312485
100088.282312478
100088.282312471
100088.282312464
100088.280031789
100088.280031801
100088.280031815
100088.280031831
100088.280031847
100088.280031864
100088.280031881
100088.280031898
100088.280031916
100088.280031935
100088.280031954
100088.280031973
100088.280031993
100088.280032014
100088.280032036
100088.280032058
100088.28003208
100088.280032103
100088.280032127
100088.28003215
100088.280032174
100088.280032197
100088.280032221
100088.280032245
100088.280032268
100088.280032291
100088.280032313
100088.280032335
100088.280032357
100088.280032377
100088.280032397
100088.280032416
100088.280032434
100088.280032451
100088.280032467
100088.280032482