/*--------------------------------*- C++ -*----------------------------------*\
  =========                 |
  \\      /  F ield         | OpenFOAM: The Open Source CFD Toolbox
   \\    /   O peration     | Website:  https://openfoam.org
    \\  /    A nd           | Version:  10
     \\/     M anipulation  |
\*---------------------------------------------------------------------------*/
FoamFile
{
    format      ascii;
    class       volScalarField;
    location    "5.2";
    object      p_rgh;
}
// * * * * * * * * * * * * * * * * * * * * * * * * * * * * * * * * * * * * * //

dimensions      [1 -1 -2 0 0 0 0];

internalField   nonuniform List<scalar> 
2500
(
88.4708049507899
88.4708102422592
88.4708172210085
88.4708218030282
88.4708243178029
88.4708256604936
88.4708263498324
88.4708267003589
88.4708268774702
88.470826968507
88.470827019657
88.4708270522679
88.4708270768606
88.4708270985429
88.4708271194395
88.4708271406707
88.470827162455
88.4708271853015
88.4708272092103
88.4708272340795
88.4708272599237
88.470827286641
88.4708273141296
88.4708273422148
88.4708273708238
88.4708273998549
88.4708274290606
88.4708274583681
88.4708274876321
88.4708275167068
88.4708275454323
88.4708275736193
88.4708276011079
88.4708276277088
88.4708276531164
88.4708276769088
88.470827698402
88.4708277163591
88.4708277280588
88.4708277285536
88.4708277068567
88.4708276408492
88.4708274850709
88.4708271530981
88.4708264813235
88.4708251603588
88.4708226651273
88.4708180716261
88.4708110181236
88.4708058402612
88.4712392698129
88.4712577593455
88.4712759825052
88.4712876543199
88.4712942226179
88.4712977753661
88.4712996244198
88.4713005557278
88.4713010083651
88.4713012229477
88.4713013262226
88.4713013797154
88.4713014122535
88.4713014368026
88.4713014586887
88.4713014801964
88.4713015021407
88.4713015249872
88.471301548896
88.4713015737943
88.4713015996385
88.4713016263704
88.471301653859
88.4713016819733
88.4713017105823
88.4713017395843
88.47130176879
88.471301798083
88.471301827376
88.4713018564216
88.471301885118
88.4713019133051
88.47130194075
88.4713019672345
88.4713019924675
88.4713020158524
88.4713020361232
88.4713020507043
88.4713020535564
88.4713020313211
88.4713019542978
88.4713017603062
88.471301323938
88.4713004086079
88.4712985826482
88.4712950676912
88.4712885330955
88.4712768071913
88.4712583439832
88.4712402078294
88.4716684345331
88.4716967419808
88.4717209805094
88.4717360593495
88.4717444664857
88.4717489813338
88.4717513208452
88.471752493424
88.4717530594498
88.4717533246003
88.4717534490628
88.4717535109521
88.4717535466625
88.4717535722739
88.4717535945238
88.4717536161334
88.4717536381213
88.4717536610115
88.4717536849057
88.471753709804
88.4717537356628
88.4717537624092
88.4717537899269
88.4717538180266
88.4717538466502
88.4717538756377
88.4717539048288
88.4717539341073
88.4717539633566
88.4717539923877
88.4717540210695
88.471754049242
88.4717540766433
88.471754103055
88.4717541282298
88.4717541514692
88.4717541713326
88.4717541847058
88.4717541842692
88.4717541533319
88.4717540546117
88.4717538095138
88.4717532592185
88.471752102676
88.4717497877136
88.4717453112389
88.471736925756
88.4717217297584
88.4716970693553
88.4716688381741
88.4720303784998
88.4720607663767
88.4720836774941
88.472097353806
88.4721047092171
88.472108531947
88.4721104601922
88.4721114077984
88.4721118600282
88.4721120714239
88.4721121719631
88.4721122237243
88.4721122553601
88.4721122793708
88.4721123009949
88.4721123223426
88.4721123442578
88.4721123671188
88.4721123909985
88.4721124158968
88.4721124417556
88.4721124684875
88.4721124959906
88.4721125240903
88.4721125526994
88.4721125816432
88.4721126108197
88.4721126400691
88.4721126692602
88.4721126982622
88.4721127269004
88.4721127550438
88.4721127824159
88.4721128088568
88.4721128341189
88.4721128576057
88.4721128782112
88.4721128934907
88.4721128978272
88.4721128782257
88.4721128054371
88.4721126169461
88.4721121833281
88.4721112527477
88.472109344817
88.4721055463888
88.4720981849532
88.4720843448304
88.4720609135111
88.4720301252091
88.4722974065226
88.4723234853736
88.4723412553431
88.4723514212092
88.4723566871835
88.4723593336676
88.4723606336047
88.4723612618254
88.4723615605326
88.4723617019336
88.4723617720592
88.4723618111748
88.4723618376738
88.4723618596472
88.4723618804419
88.4723619014549
88.4723619232391
88.4723619460274
88.4723619698925
88.4723619947763
88.472362020635
88.4723620473524
88.4723620748264
88.4723621029261
88.472362131477
88.4723621604062
88.4723621895246
88.4723622187303
88.4723622478487
88.4723622767779
88.4723623053578
88.4723623334576
88.4723623608152
88.4723623872997
88.4723624126927
88.4723624365142
88.4723624580074
88.4723624755861
88.4723624855833
88.4723624796898
88.472362439119
88.4723623233149
88.4723620463337
88.4723614372197
88.4723601557343
88.4723575249081
88.4723522404674
88.4723419093207
88.4723236208374
88.4722968092392
88.4724729708832
88.4724919375585
88.472503796118
88.4725102907105
88.4725135288754
88.472515101108
88.4725158534275
88.472516211943
88.4725163835392
88.4725164674892
88.4725165126147
88.472516541151
88.4725165632408
88.4725165833661
88.4725166033459
88.472516623995
88.4725166456192
88.4725166683202
88.4725166921417
88.4725167170109
88.472516742826
88.4725167695287
88.4725167969737
88.4725168250297
88.4725168535515
88.4725168824079
88.4725169114681
88.4725169406011
88.4725169696758
88.4725169985177
88.4725170270249
88.4725170550519
88.4725170824095
88.4725171089231
88.4725171344471
88.4725171586033
88.4725171809259
88.4725172004692
88.4725172151666
88.4725172204344
88.4725172058534
88.4725171491009
88.472517001268
88.4725166635908
88.4725159297959
88.4725143711985
88.4725111178705
88.4725044918741
88.4724922005698
88.4724724266998
88.4725773895188
88.4725894740113
88.4725964697427
88.472600122419
88.4726018688816
88.4726026830322
88.4726030609309
88.4726032382896
88.4726033249608
88.4726033702464
88.472603398186
88.4726034191262
88.4726034378691
88.4726034564519
88.4726034757041
88.4726034959749
88.4726035174099
88.472603540009
88.4726035637577
88.4726035885687
88.4726036143693
88.4726036410138
88.4726036684006
88.472603696413
88.4726037248765
88.4726037536748
88.4726037826622
88.4726038117224
88.4726038406952
88.4726038694644
88.4726038978988
88.472603925853
88.4726039531815
88.4726039797533
88.4726040053793
88.4726040298701
88.4726040529058
88.4726040739915
88.4726040921523
88.4726041051763
88.4726041082322
88.472604090799
88.4726040287933
88.4726038732188
88.4726035143394
88.4726027147844
88.4726009628066
88.4725972242886
88.4725899180485
88.4725771456287
88.4726342485083
88.4726411370211
88.4726448438305
88.4726466669381
88.4726474917261
88.472647852177
88.472648010953
88.4726480829413
88.4726481198304
88.472648141862
88.472648158946
88.4726481748075
88.472648191062
88.4726482083643
88.472648226918
88.472648246825
88.4726482680271
88.4726482904953
88.4726483141276
88.4726483388804
88.4726483646227
88.4726483912091
88.4726484185376
88.4726484464627
88.4726484748535
88.4726485035644
88.4726485324791
88.4726485614374
88.4726485903229
88.4726486189902
88.4726486473519
88.4726486752334
88.4726487025328
88.4726487291337
88.4726487549051
88.472648779687
88.4726488033339
88.4726488256565
88.4726488462766
88.472648864481
88.4726488784509
88.4726488844899
88.4726488725573
88.4726488226297
88.4726486830623
88.4726483384002
88.4726475168573
88.4726456473436
88.472641745233
88.4726343642978
88.4726628697244
88.4726664291229
88.4726682038017
88.4726689999516
88.4726693258126
88.4726694467681
88.4726694914862
88.4726695082791
88.4726695183053
88.4726695271384
88.4726695376012
88.4726695499994
88.4726695643767
88.4726695806021
88.4726695985446
88.4726696180442
88.4726696389698
88.4726696612779
88.4726696848229
88.4726697094738
88.4726697351289
88.4726697616425
88.4726697888982
88.4726698167506
88.472669845054
88.4726698736631
88.4726699024759
88.4726699313323
88.4726699601015
88.4726699886669
88.4726700169122
88.4726700447209
88.4726700719912
88.4726700986212
88.472670124509
88.4726701495674
88.4726701737818
88.472670197094
88.4726702195621
88.4726702411426
88.4726702617627
88.4726702810003
88.4726702959597
88.4726703012275
88.4726702756452
88.4726701709587
88.4726698538143
88.4726690381067
88.4726671543031
88.4726632865932
88.4726762869686
88.4726779640914
88.4726787249674
88.4726790075074
88.4726790926652
88.4726791006688
88.4726790917921
88.4726790819404
88.4726790782588
88.4726790797431
88.4726790860732
88.4726790960704
88.4726791089779
88.472679124272
88.4726791416178
88.4726791607245
88.4726791814173
88.4726792035362
88.4726792269357
88.4726792514848
88.4726792770234
88.4726793034642
88.4726793306181
88.4726793583686
88.4726793865702
88.4726794150774
88.4726794437593
88.4726794724847
88.4726795011375
88.4726795295865
88.4726795577444
88.4726795854658
88.4726796126924
88.4726796393225
88.4726796653267
88.4726796906471
88.4726797153417
88.4726797394833
88.4726797633193
88.4726797872718
88.4726798119518
88.4726798385091
88.4726798671472
88.4726798989577
88.472679926781
88.4726799350319
88.4726798611373
88.4726795744355
88.4726787592808
88.472676909354
88.4726821721706
88.4726828896819
88.4726831687294
88.4726832216693
88.4726832040615
88.4726831652079
88.4726831339794
88.4726831123699
88.4726831019216
88.4726830993313
88.4726831029984
88.4726831112348
88.4726831229636
88.4726831374865
88.4726831542794
88.4726831730077
88.4726831934386
88.4726832153683
88.4726832386077
88.4726832630404
88.4726832884917
88.4726833148161
88.4726833418681
88.4726833695022
88.4726833975874
88.4726834259636
88.4726834545145
88.4726834830944
88.4726835116016
88.4726835399197
88.4726835679467
88.4726835955662
88.4726836227492
88.4726836493792
88.4726836754708
88.4726837010094
88.4726837260969
88.4726837509224
88.4726837758353
88.4726838014467
88.4726838287315
88.4726838593342
88.4726838946808
88.472683938191
88.4726839881914
88.4726840430667
88.4726840727963
88.4726840232906
88.4726837207127
88.4726829153078
88.472684588065
88.472684859531
88.4726849309518
88.4726848946011
88.4726848403952
88.4726847861166
88.4726847473939
88.4726847213751
88.4726847078127
88.4726847029233
88.4726847048732
88.4726847118436
88.4726847226411
88.4726847364655
88.4726847527782
88.4726847711718
88.4726847913407
88.4726848130813
88.4726848361897
88.4726848604914
88.4726848858263
88.4726849120343
88.4726849389554
88.472684966473
88.4726849944127
88.4726850226434
88.4726850510488
88.4726850794832
88.4726851078303
88.4726851360028
88.4726851638843
88.4726851913874
88.4726852184685
88.472685245084
88.4726852712192
88.4726852969325
88.4726853223547
88.4726853477187
88.4726853734464
88.4726854002365
88.4726854291803
88.4726854620094
88.472685500441
88.4726855482877
88.4726856056513
88.4726856757043
88.4726857421629
88.472685785222
88.4726857057394
88.4726853935426
88.4726855068729
88.4726855890185
88.4726855810877
88.4726855180343
88.472685456014
88.4726854000619
88.472685360568
88.4726853336761
88.4726853189495
88.4726853128814
88.4726853137399
88.4726853197935
88.472685329878
88.4726853431639
88.4726853590546
88.4726853771281
88.4726853970787
88.4726854186301
88.4726854415931
88.4726854657638
88.4726854909677
88.4726855170593
88.4726855438639
88.4726855712215
88.4726855990157
88.4726856271009
88.4726856553316
88.472685683606
88.4726857117785
88.4726857397764
88.4726857674978
88.4726857948699
88.4726858218492
88.4726858483918
88.4726858745562
88.4726859003713
88.4726859260118
88.4726859517687
88.4726859780785
88.4726860056835
88.4726860356313
88.4726860695519
88.4726861091331
88.4726861577947
88.4726862158423
88.4726862873795
88.4726863615069
88.4726864323893
88.4726864393888
88.4726863402902
88.4726858178328
88.4726858276845
88.4726857951609
88.4726857305504
88.4726856718917
88.4726856197085
88.4726855823537
88.4726855563786
88.4726855415647
88.47268553506
88.4726855353219
88.4726855407644
88.472685550325
88.4726855631889
88.4726855787449
88.472685596571
88.4726856163179
88.4726856377092
88.4726856605121
88.4726856845518
88.4726857096393
88.4726857355854
88.4726857622445
88.4726857894711
88.4726858171052
88.4726858450158
88.4726858730719
88.4726859011425
88.4726859291404
88.4726859569491
88.4726859844959
88.472686011708
88.4726860385417
88.4726860649971
88.4726860911178
88.4726861169765
88.472686142748
88.4726861687523
88.4726861954259
88.4726862235111
88.4726862539537
88.4726862882671
88.4726863278338
88.472686375535
88.4726864313852
88.4726864989934
88.4726865695848
88.4726866423152
88.4726866768906
88.4726866611309
88.4726858963841
88.4726858828799
88.4726858469658
88.4726857893402
88.4726857376081
88.4726856911002
88.4726856570342
88.4726856328634
88.4726856187044
88.4726856122725
88.4726856123016
88.4726856174238
88.4726856266498
88.4726856392081
88.4726856545167
88.4726856721391
88.4726856917114
88.4726857129572
88.4726857356291
88.4726857595379
88.4726857844944
88.4726858102949
88.4726858368231
88.4726858638751
88.4726858913491
88.4726859190705
88.4726859469374
88.4726859748189
88.4726860025985
88.4726860302035
88.4726860575465
88.4726860845694
88.4726861112431
88.4726861375675
88.4726861635863
88.472686189416
88.4726862152311
88.4726862413372
88.4726862682001
88.4726862964453
88.4726863270043
88.4726863611286
88.4726863999967
88.4726864458353
88.4726864983095
88.4726865601406
88.4726866236306
88.4726866893034
88.4726867284626
88.4726867408754
88.4726858921204
88.4726858738431
88.4726858415816
88.4726857928763
88.4726857486967
88.4726857081987
88.4726856778725
88.4726856559719
88.4726856429043
88.4726856369525
88.4726856370689
88.4726856421184
88.4726856511697
88.472685663568
88.472685678702
88.4726856961643
88.4726857156056
88.472685736735
88.4726857592905
88.4726857830829
88.4726858078939
88.4726858335634
88.4726858599315
88.4726858868235
88.4726859141083
88.4726859416405
88.4726859693037
88.4726859969669
88.4726860245282
88.4726860519149
88.4726860790252
88.4726861058298
88.4726861323143
88.4726861584641
88.4726861843374
88.4726862100506
88.4726862357929
88.47268626187
88.4726862887037
88.4726863168908
88.4726863472315
88.4726863807737
88.4726864184486
88.4726864619151
88.4726865106059
88.4726865663251
88.4726866221608
88.4726866787678
88.4726867146965
88.4726867338759
88.4726858612121
88.4726858443319
88.4726858173817
88.4726857771893
88.4726857400528
88.4726857053611
88.4726856788475
88.4726856594643
88.4726856478082
88.4726856426278
88.4726856430789
88.4726856482303
88.4726856572961
88.4726856696216
88.4726856846828
88.4726857020578
88.4726857213973
88.4726857424248
88.4726857648784
88.4726857885544
88.4726858132344
88.472685838773
88.472685864981
88.4726858917129
88.4726859188086
88.4726859461371
88.4726859735674
88.4726860009978
88.4726860283408
88.4726860554656
88.472686082343
88.4726861089148
88.4726861351519
88.4726861610834
88.472686186753
88.472686212277
88.4726862378593
88.4726862637763
88.4726862904208
88.4726863183168
88.4726863481628
88.4726863808173
88.4726864169788
88.4726864578406
88.4726865026314
88.4726865524717
88.4726866011479
88.472686649111
88.4726866799028
88.4726866984856
88.4726858235954
88.4726858096546
88.4726857877686
88.4726857550413
88.4726857241913
88.4726856948546
88.4726856720663
88.4726856553025
88.4726856452762
88.4726856410853
88.4726856420893
88.4726856475463
88.4726856567431
88.4726856691123
88.4726856841735
88.4726857015048
88.4726857208007
88.4726857417409
88.4726857641072
88.4726857876813
88.4726858122594
88.4726858376525
88.4726858637005
88.4726858902432
88.4726859171351
88.4726859442599
88.4726859714719
88.4726859986549
88.472686025736
88.4726860525989
88.4726860791998
88.4726861055096
88.4726861314703
88.4726861571398
88.472686182562
88.4726862078387
88.472686233159
88.472686258785
88.4726862850803
88.4726863124961
88.472686341629
88.4726863731485
88.4726864075783
88.4726864457189
88.4726864867262
88.472686531095
88.4726865734119
88.4726866138226
88.4726866395795
88.4726866555866
88.4726857857167
88.4726857747155
88.4726857572532
88.4726857308269
88.4726857054629
88.4726856810012
88.4726856618072
88.4726856476773
88.4726856393972
88.4726856363704
88.4726856381021
88.4726856439956
88.4726856534544
88.472685665969
88.472685681103
88.4726856984489
88.4726857177302
88.4726857386413
88.4726857609348
88.4726857844071
88.4726858088688
88.472685834131
88.4726858600043
88.4726858863723
88.4726859130751
88.4726859399671
88.4726859669317
88.4726859938673
88.472686020672
88.4726860472583
88.4726860735827
88.4726860995725
88.4726861252566
88.472686150606
88.4726861757081
88.4726862006646
88.4726862256502
88.4726862508833
88.4726862766838
88.4726863034593
88.4726863317046
88.4726863619144
88.4726863944816
88.4726864298718
88.4726864671829
88.4726865065895
88.4726865433331
88.47268657737
88.4726865987614
88.4726866120036
88.4726857494097
88.4726857409405
88.4726857272035
88.4726857060741
88.4726856855123
88.4726856654743
88.4726856496418
88.4726856381167
88.4726856316702
88.4726856299094
88.4726856324996
88.4726856389607
88.4726856487832
88.4726856615307
88.4726856767957
88.4726856942289
88.4726857135247
88.4726857344212
88.4726857566711
88.4726857800706
88.472685804416
88.4726858295326
88.4726858552604
88.4726858814392
88.4726859079237
88.4726859345974
88.4726859613147
88.4726859879738
88.472686014502
88.4726860407827
88.472686066787
88.4726860924711
88.472686117806
88.4726861428062
88.472686167559
88.4726861921226
88.4726862166717
88.47268624141
88.4726862666139
88.4726862926182
88.4726863198302
88.4726863485994
88.4726863792021
88.4726864118711
88.472686445748
88.4726864806435
88.4726865125267
88.472686541194
88.4726865589328
88.4726865697448
88.4726857149508
88.4726857086062
88.4726856979687
88.4726856813504
88.472685664965
88.4726856489142
88.4726856362395
88.4726856272464
88.472685622648
88.4726856222551
88.4726856258058
88.4726856329216
88.4726856432098
88.4726856562629
88.4726856717316
88.4726856892812
88.4726857086353
88.4726857295464
88.4726857517671
88.4726857750939
88.4726857993373
88.472685824323
88.4726858498907
88.472685875895
88.4726859021612
88.4726859285875
88.4726859550574
88.47268598144
88.4726860076626
88.4726860336377
88.4726860593073
88.4726860846276
88.4726861095987
88.4726861342351
88.4726861585514
88.4726861826784
88.4726862067182
88.4726862308889
88.4726862553798
88.472686280511
88.4726863065735
88.4726863338292
88.4726863624237
88.4726863924443
88.4726864230615
88.4726864538825
88.4726864815311
88.4726865056582
88.4726865203556
88.4726865291159
88.4726856821944
88.4726856776251
88.4726856696216
88.472685656845
88.4726856441266
88.4726856316702
88.472685621964
88.4726856154157
88.4726856126945
88.472685613684
88.4726856182679
88.4726856261404
88.4726856369671
88.4726856503839
88.4726856661146
88.4726856838242
88.4726857032801
88.4726857242204
88.4726857464266
88.4726857696951
88.4726857938513
88.4726858187205
88.4726858441281
88.4726858699287
88.4726858959912
88.4726859221701
88.4726859483781
88.4726859744696
88.4726860003721
88.4726860260125
88.4726860513474
88.4726860762894
88.4726861008676
88.4726861250674
88.4726861489471
88.4726861725649
88.4726861960517
88.472686219553
88.4726862432726
88.4726862674142
88.4726862922398
88.4726863179239
88.4726863445248
88.4726863719843
88.4726863995311
88.4726864266704
88.4726864505792
88.47268647085
88.4726864829718
88.4726864900294
88.4726856508496
88.4726856478228
88.4726856420893
88.472685632616
88.4726856231719
88.4726856139605
88.4726856070338
88.4726856028283
88.4726856019406
88.4726856043708
88.472685610046
88.472685618719
88.4726856301277
88.4726856439956
88.4726856600173
88.4726856779453
88.4726856975176
88.472685718516
88.4726857407368
88.4726857639616
88.4726857880305
88.4726858127833
88.4726858380309
88.4726858636423
88.4726858894865
88.472685915418
88.4726859413495
88.47268596715
88.4726859927323
88.4726860180235
88.4726860429801
88.4726860675291
88.4726860916853
88.472686115434
88.4726861388044
88.4726861618838
88.4726861847448
88.4726862075186
88.4726862303796
88.4726862534881
88.4726862770331
88.4726863011019
88.4726863257092
88.4726863506949
88.4726863753749
88.4726863991818
88.4726864197874
88.4726864367258
88.4726864466356
88.4726864522381
88.4726856207126
88.4726856190246
88.4726856152847
88.4726856087218
88.472685602188
88.4726855959452
88.4726855916088
88.4726855896297
88.472685590561
88.4726855944318
88.4726856012276
88.4726856107591
88.4726856228226
88.4726856371562
88.4726856535272
88.4726856716879
88.4726856914203
88.4726857125061
88.4726857347414
88.4726857579517
88.4726857819478
88.4726858065696
88.4726858316717
88.4726858570939
88.4726858827198
88.4726859084039
88.4726859340444
88.4726859595394
88.4726859847869
88.4726860097289
88.4726860342926
88.4726860584342
88.4726860821393
88.4726861053932
88.4726861282397
88.4726861507224
88.4726861729141
88.4726861949312
88.4726862168754
88.4726862388925
88.4726862610987
88.4726862835378
88.4726863061805
88.4726863288088
88.4726863507967
88.4726863715478
88.4726863892138
88.4726864032418
88.4726864112163
88.4726864155236
88.472685591536
88.4726855910412
88.4726855891058
88.4726855851331
88.4726855812187
88.4726855776971
88.4726855757908
88.4726855759509
88.472685578643
88.472685583969
88.4726855918998
88.472685602319
88.4726856150664
88.4726856299239
88.4726856466732
88.4726856651105
88.4726856850175
88.4726857062051
88.4726857284841
88.4726857516798
88.4726857756032
88.4726858001231
88.4726858250651
88.4726858503127
88.4726858757058
88.4726859011425
88.472685926492
88.4726859516813
88.4726859765797
88.4726860011433
88.472686025314
88.4726860490191
88.4726860722585
88.4726860950032
88.4726861172967
88.4726861391391
88.4726861606177
88.4726861818053
88.4726862028037
88.4726862236857
88.4726862445386
88.4726862653624
88.4726862860698
88.4726863064279
88.4726863258984
88.4726863438555
88.4726863588439
88.4726863702963
88.4726863765391
88.4726863796968
88.4726855631452
88.4726855637855
88.4726855634945
88.4726855618501
88.4726855603367
88.4726855593326
88.4726855596964
88.4726855619083
88.4726855663321
88.4726855730696
88.4726855821646
88.4726855935005
88.472685606961
88.4726856223569
88.4726856395282
88.4726856582565
88.4726856783673
88.4726856996858
88.472685722023
88.4726857452042
88.4726857690839
88.4726857934875
88.4726858182839
88.4726858433423
88.4726858685171
88.472685893692
88.4726859187649
88.4726859436196
88.4726859681832
88.4726859923685
88.4726860161172
88.4726860393857
88.4726860621304
88.4726860843366
88.4726861060335
88.4726861272211
88.4726861479576
88.4726861682866
88.4726861882955
88.4726862080133
88.4726862274838
88.4726862467069
88.472686265537
88.4726862837269
88.4726863008109
88.4726863161777
88.472686328736
88.4726863378455
88.4726863425167
88.4726863445976
88.4726855353365
88.4726855370536
88.4726855383051
88.4726855388144
88.472685539542
88.4726855408662
88.4726855433983
88.4726855475456
88.4726855536428
88.4726855617919
88.472685572051
88.4726855843182
88.4726855985064
88.4726856144989
88.4726856320922
88.4726856511406
88.4726856714842
88.4726856929337
88.4726857153437
88.4726857385249
88.4726857623464
88.4726857866626
88.4726858113136
88.4726858361828
88.4726858611393
88.4726858860668
88.4726859108341
88.4726859353832
88.472685959583
88.4726859833754
88.4726860067021
88.472686029505
88.4726860517403
88.4726860734081
88.4726860944793
88.4726861149975
88.4726861349482
88.4726861544041
88.4726861733798
88.4726861919335
88.472686210036
88.4726862276439
88.4726862446405
88.4726862607495
88.4726862755779
88.4726862885436
88.4726862988464
88.4726863058022
88.4726863090036
88.4726863100659
88.472685508008
88.4726855107874
88.4726855135086
88.4726855160552
88.4726855188492
88.4726855223853
88.4726855269546
88.4726855329791
88.4726855407062
88.4726855502377
88.4726855616318
88.4726855748449
88.4726855898043
88.4726856063789
88.4726856244379
88.472685643821
88.4726856643974
88.472685686007
88.4726857084897
88.4726857317
88.4726857554779
88.4726857796923
88.4726858042122
88.4726858289068
88.4726858536305
88.472685878296
88.4726859027869
88.4726859270013
88.4726859508373
88.4726859742368
88.472685997127
88.4726860194642
88.4726860411902
88.4726860622759
88.4726860827213
88.4726861025265
88.4726861216914
88.4726861402451
88.4726861581876
88.4726861755335
88.4726861922682
88.4726862083044
88.4726862235257
88.4726862376265
88.4726862503157
88.4726862610114
88.4726862692041
88.4726862741518
88.4726862759271
88.4726862759999
88.4726854809996
88.4726854848413
88.4726854890032
88.4726854934997
88.4726854982582
88.4726855038898
88.4726855104091
88.472685518238
88.4726855275367
88.4726855384361
88.4726855509653
88.4726855651243
88.4726855808403
88.4726855980116
88.4726856165507
88.4726856362977
88.472685657136
88.4726856789057
88.4726857014757
88.4726857247151
88.4726857484638
88.4726857725909
88.4726857969654
88.4726858214854
88.4726858460053
88.4726858704089
88.4726858945942
88.4726859184739
88.4726859419607
88.4726859649672
88.4726859874208
88.4726860092633
88.4726860304509
88.4726860509691
88.4726860707742
88.4726860898518
88.4726861082017
88.4726861258387
88.4726861427334
88.4726861589006
88.4726861742674
88.4726861887611
88.4726862022362
88.4726862144016
88.4726862250536
88.4726862335956
88.4726862397802
88.4726862427924
88.4726862431999
88.4726862422685
88.4726854542241
88.4726854591572
88.4726854647597
88.4726854711625
88.4726854778128
88.4726854854525
88.4726854938344
88.472685503395
88.4726855142362
88.4726855264598
88.4726855401241
88.4726855552144
88.4726855717017
88.4726855894987
88.4726856085035
88.4726856286288
88.4726856497291
88.4726856716734
88.4726856943453
88.4726857176138
88.4726857413334
88.4726857653877
88.4726857896312
88.4726858139766
88.4726858382783
88.4726858624344
88.4726858863287
88.4726859098882
88.4726859329967
88.4726859555958
88.4726859776129
88.4726859989751
88.4726860196242
88.4726860395458
88.4726860586961
88.4726860770461
88.4726860945811
88.4726861112867
88.4726861271483
88.4726861421077
88.4726861561358
88.4726861691015
88.4726861808886
88.4726861911913
88.4726861998788
88.4726862063544
88.4726862106327
88.4726862117532
88.4726862107927
88.4726862088137
88.472685427565
88.4726854336477
88.4726854407054
88.4726854490145
88.4726854575129
88.472685467088
88.4726854772598
88.4726854885084
88.4726855008339
88.4726855143526
88.4726855291374
88.472685545159
88.4726855624031
88.4726855808258
88.4726856003253
88.4726856208144
88.4726856421912
88.4726856643392
88.472685687113
88.4726857104251
88.4726857341302
88.4726857580972
88.4726857822243
88.472685806395
88.4726858304784
88.4726858543872
88.4726858779904
88.4726859012153
88.4726859239745
88.4726859461662
88.4726859677321
88.4726859885996
88.4726860087248
88.4726860280498
88.4726860465307
88.4726860641531
88.4726860808587
88.472686096633
88.4726861114468
88.4726861252275
88.4726861379168
88.4726861493982
88.4726861595409
88.4726861680392
88.472686174835
88.472686179317
88.4726861817326
88.4726861809613
88.4726861786185
88.472686175548
88.4726854009205
88.4726854082255
88.4726854167966
88.4726854270411
88.4726854373585
88.4726854488108
88.4726854607288
88.4726854736073
88.4726854873734
88.4726855021581
88.4726855180197
88.4726855349727
88.472685552988
88.4726855720219
88.4726855920162
88.4726856128982
88.4726856345515
88.4726856568886
88.4726856797934
88.4726857031346
88.4726857268251
88.4726857507339
88.4726857747446
88.4726857987407
88.4726858226204
88.4726858462673
88.472685869594
88.4726858924987
88.4726859148795
88.4726859366783
88.4726859577931
88.4726859781804
88.4726859977673
88.4726860164956
88.4726860343071
88.4726860511873
88.472686067078
88.472686081921
88.4726860956871
88.4726861083036
88.4726861196832
88.4726861297095
88.4726861382369
88.4726861450035
88.4726861499657
88.4726861524978
88.4726861530798
88.4726861504023
88.4726861466188
88.4726861423842
88.4726853742031
88.4726853828615
88.4726853930188
88.4726854052424
88.4726854173787
88.4726854306791
88.4726854442852
88.4726854587207
88.4726854738983
88.47268548992
88.4726855068584
88.4726855247136
88.4726855434856
88.4726855631452
88.4726855836343
88.4726856048947
88.4726856268389
88.4726856493653
88.4726856723864
88.4726856957859
88.4726857194764
88.4726857433125
88.4726857672067
88.4726857910427
88.4726858147187
88.4726858381327
88.4726858611684
88.472685883753
88.4726859057846
88.4726859271759
88.4726859478542
88.4726859677467
88.4726859867951
88.4726860049268
88.4726860220835
88.4726860382216
88.4726860532828
88.472686067209
88.4726860799565
88.4726860914234
88.4726861015079
88.472686110108
88.4726861170784
88.4726861221425
88.4726861253148
88.4726861259551
88.4726861247182
88.4726861200907
88.4726861147792
88.4726861092495
88.4726853473403
88.4726853575266
88.4726853693719
88.4726853836619
88.4726853976026
88.4726854127221
88.4726854279725
88.4726854439359
88.4726854604669
88.4726854776964
88.4726854956825
88.4726855144108
88.4726855339395
88.4726855542103
88.4726855751942
88.4726855968474
88.4726856190682
88.4726856418129
88.4726856649504
88.4726856884226
88.4726857120841
88.4726857358764
88.4726857596543
88.4726857833448
88.472685806817
88.4726858299837
88.4726858527574
88.4726858750073
88.4726858966897
88.4726859176881
88.4726859379298
88.472685957342
88.4726859758521
88.4726859934017
88.4726860099036
88.472686025314
88.4726860395604
88.4726860525843
88.4726860642986
88.472686074645
88.4726860834635
88.4726860906812
88.4726860961382
88.4726860995434
88.4726861009985
88.4726860997471
88.4726860966912
88.4726860900264
88.4726860830997
88.4726860761293
88.4726853202592
88.4726853321481
88.4726853458415
88.4726853622851
88.4726853780594
88.4726853949687
88.4726854118053
88.4726854292676
88.4726854471082
88.4726854655019
88.4726854845067
88.4726855041226
88.4726855243644
88.4726855452463
88.472685566725
88.4726855887566
88.4726856112684
88.4726856342168
88.4726856574853
88.4726856810157
88.4726857046917
88.4726857284113
88.4726857520873
88.4726857756323
88.4726857989153
88.4726858218492
88.4726858443464
88.4726858662907
88.4726858876238
88.4726859082293
88.472685928049
88.4726859469811
88.4726859649672
88.4726859819202
88.4726859977818