/*--------------------------------*- C++ -*----------------------------------*\
  =========                 |
  \\      /  F ield         | OpenFOAM: The Open Source CFD Toolbox
   \\    /   O peration     | Website:  https://openfoam.org
    \\  /    A nd           | Version:  10
     \\/     M anipulation  |
\*---------------------------------------------------------------------------*/
FoamFile
{
    format      ascii;
    class       surfaceScalarField;
    location    "5.2";
    object      phi;
}
// * * * * * * * * * * * * * * * * * * * * * * * * * * * * * * * * * * * * * //

dimensions      [1 0 -1 0 0 0 0];

internalField   nonuniform List<scalar> 
4900
(
-6.21367442879844e-12
6.35234817682321e-12
-7.92328018078222e-12
1.92364490864445e-12
-6.62506655657649e-12
-1.06500432633817e-12
-4.62912890299099e-12
-1.76405493835289e-12
-3.01069536928704e-12
-1.38975263221987e-12
-1.91918353135121e-12
-8.65031563453875e-13
-1.22854028198345e-12
-4.66028245047817e-13
-7.98281579884738e-13
-2.07565860725011e-13
-5.26042312048783e-13
-5.14675636047993e-14
-3.48757750472701e-13
4.17250447910688e-14
-2.28446030446898e-13
9.71926403337594e-14
-1.43152958479548e-13
1.30973600424444e-13
-8.01436832451648e-14
1.52248245019014e-13
-3.19266166079776e-14
1.66197575330178e-13
5.97047038214622e-15
1.75783656714141e-13
3.6339535577744e-14
1.8263922596912e-13
6.0985756445434e-14
1.8772151736311e-13
8.11609786254263e-14
1.91564830858955e-13
9.77698413145816e-14
1.94510712477759e-13
1.11486383757802e-13
1.96786962915835e-13
1.22860617649999e-13
1.98522320423684e-13
1.32333457098876e-13
1.99828010312914e-13
1.40295307880828e-13
2.00761216274517e-13
1.47070510357026e-13
2.01390108174387e-13
1.52984330285393e-13
2.01720871020223e-13
1.58334977717575e-13
2.01780004318429e-13
1.63418736549883e-13
2.01576327854162e-13
1.68551208120247e-13
2.01089124143691e-13
1.74061624990774e-13
2.0031051937967e-13
1.80327144655336e-13
1.99191246150457e-13
1.8778204821192e-13
1.97680123845134e-13
1.96964324002139e-13
1.95673330290362e-13
2.08535633180888e-13
1.93055319173676e-13
2.2339361693391e-13
1.89593958635579e-13
2.42805231243719e-13
1.84934816640585e-13
2.68620834841415e-13
1.78507137082068e-13
3.03662276576186e-13
1.69364055462698e-13
3.52455193417137e-13
1.55822686911468e-13
4.22506554846858e-13
1.3492570599989e-13
5.26612016752527e-13
1.01391164843822e-13
6.86694822885021e-13
4.60818487243978e-14
9.40654924864178e-13
-4.70071339100981e-14
1.3515457856316e-12
-2.03020730640229e-13
2.02269971819132e-12
-4.6206563819157e-13
3.09808304289545e-12
-8.64220929066637e-13
4.71436962861919e-12
-1.40112672683213e-12
6.7369797725336e-12
-1.80044713091812e-12
8.0697451729788e-12
-1.10042871348308e-12
6.31323580025767e-12
1.99103795505773e-12
6.47604592634987e-12
-8.34292919011623e-12
1.48903233649483e-11
-1.28755570231618e-11
6.73563850483293e-12
-1.15037491739501e-11
-2.13986279182303e-12
-8.51901132434994e-12
-4.45507881807782e-12
-5.84649446914926e-12
-3.77393071314654e-12
-3.94895599171951e-12
-2.47827568511776e-12
-2.69036260290712e-12
-1.44351939997095e-12
-1.86861328140869e-12
-7.5103519950333e-13
-1.32211540217284e-12
-3.22215914324812e-13
-9.4622357815257e-13
-6.06034355762662e-14
-6.76873136876537e-13
9.95927243442283e-14
-4.75894815034867e-13
2.00271200724027e-13
-3.20529973967603e-13
2.65953888411855e-13
-1.96958685120711e-13
3.10680849715599e-13
-9.65423702646111e-14
3.42526610919767e-13
-1.36502429228267e-14
3.66077573686097e-13
5.55496099658472e-14
3.84056972528723e-13
1.13807988907077e-13
3.98060969937263e-13
1.63189562419835e-13
4.09110710448437e-13
2.0529983097501e-13
4.17891530200789e-13
2.41463587347457e-13
4.24818960921203e-13
2.72786941870306e-13
4.30225094853459e-13
3.00244536462075e-13
4.34307964009214e-13
3.24707106067211e-13
4.37242075657297e-13
3.46997980068525e-13
4.39087841073418e-13
3.67911409658589e-13
4.39902501382199e-13
3.88244132864015e-13
4.39698975951185e-13
4.0881301203712e-13
4.3843591712762e-13
4.30497455536396e-13
4.36049498788967e-13
4.54254474022918e-13
4.32411514978759e-13
4.8120388507051e-13
4.27315001334966e-13
5.12659234190833e-13
4.20463165297052e-13
5.50228645542284e-13
4.114558728546e-13
5.95983235838093e-13
3.99604072789177e-13
6.52733911589776e-13
3.83832763717395e-13
7.24384654186603e-13
3.62495169389463e-13
8.16653693784909e-13
3.32860935477228e-13
9.38270097325942e-13
2.90263316891403e-13
1.10314791196675e-12
2.26589121050306e-13
1.33415147290588e-12
1.27614767856624e-13
1.66951021911956e-12
-3.11693862511033e-14
2.17331486045611e-12
-2.91642976744752e-13
2.95057033677725e-12
-7.19798291261898e-13
4.16487555842454e-12
-1.41400251647443e-12
6.02547896381245e-12
-2.45910530182916e-12
8.68776795945643e-12
-3.79138788665717e-12
1.17169722131908e-11
-4.54724293145701e-12
1.31516139388193e-11
-2.2408086626308e-12
8.5450485038271e-12
6.88360801092762e-12
1.52057028165366e-11
-5.57082861882337e-12
2.06706650691495e-11
-1.09140157160287e-11
1.23649264820025e-11
-1.0626422073328e-11
-2.13222073830692e-12
-8.48106349663314e-12
-6.31176188875995e-12
-6.25442233355569e-12
-5.71974577666082e-12
-4.53518145904912e-12
-3.92263311757058e-12
-3.30911945225234e-12
-2.3990291007053e-12
-2.45148081979467e-12
-1.34146215131542e-12
-1.84256976703487e-12
-6.66587191288034e-13
-1.39764340581582e-12
-2.431376067228e-13
-1.06183843249989e-12
2.44638293137189e-14
-8.00479206774347e-13
1.98212873168583e-13
-5.91638236289394e-13
3.1528904437495e-13
-4.21199487538419e-13
3.97460743421519e-13
-2.79790162071668e-13
4.57481787942374e-13
-1.60969465944057e-13
5.02823010876113e-13
-6.01255072862409e-14
5.3800856898799e-13
2.61670930999325e-14
5.65804159739135e-13
1.00557960443163e-13
5.88003426450185e-13
1.65173161344709e-13
6.05813164683225e-13
2.21777874011979e-13
6.2001664778856e-13
2.71888193720609e-13
6.31197535069393e-13
3.16842403212472e-13
6.39740421380476e-13
3.57861143376301e-13
6.45938543773452e-13
3.96095082925292e-13
6.49931204797135e-13
4.32667086306913e-13
6.51804064159359e-13
4.68696287004508e-13
6.51579591739632e-13
5.05331598957581e-13
6.4918685934897e-13
5.43806488565416e-13
6.44483200074563e-13
5.85455746436274e-13
6.37238695071111e-13
6.31815333426012e-13
6.27051807874901e-13
6.84655974504384e-13
6.13391343778134e-13
7.46123982804512e-13
5.95491344754292e-13
8.18895711052784e-13
5.72139523607814e-13
9.06471879166496e-13
5.41454254391027e-13
1.01353274807167e-12
5.0062730034745e-13
1.14662074181184e-12
4.45095685168282e-13
1.31518286818475e-12
3.6731615349406e-13
1.53343347364845e-12
2.54438957178575e-13
1.82338055384912e-12
8.44636341649563e-14
2.21980750686079e-12
-1.79881040418858e-13
2.77773488702048e-12
-6.00687649903521e-13
3.58256233800056e-12
-1.27419238827246e-12
4.75623631955931e-12
-2.33487613215077e-12
6.43107223925798e-12
-3.87694576232482e-12
8.64100549788874e-12
-5.73666472586072e-12
1.08280264598834e-11
-6.4574275497495e-12
1.11937224226105e-11
-2.31782874387464e-12
5.8009933607255e-12
1.25528349036556e-11
2.11796141395061e-11
-2.64124335845353e-12
2.35249272096954e-11
-6.699095889758e-12
1.67032254956234e-11
-7.45102832187619e-12
-1.09817456458967e-12
-6.6528025530581e-12
-6.83746205798856e-12
-5.42423194665873e-12
-6.68561447268737e-12
-4.28989425764658e-12
-4.80159144479923e-12
-3.36925121003276e-12
-3.06937861314568e-12
-2.65351246865523e-12
-1.81051338259052e-12
-2.09985957869374e-12
-9.76209976376551e-13
-1.66694045206679e-12
-4.34043422225664e-13
-1.32308495791134e-12
-7.89406411223572e-14
-1.04533476379538e-12
1.59672576966743e-13
-8.17405213182287e-13
3.25548503027222e-13
-6.27736811486679e-13
4.45101468311165e-13
-4.68005935328831e-13
5.34263860346402e-13
-3.32110687313635e-13
6.02688502987932e-13
-2.15459627340094e-13
6.56386918994709e-13
-1.14513592177735e-13
6.99164553879689e-13
-2.64666223884456e-14
7.33544965434427e-13
5.09924739414307e-14
7.61230240595412e-13
1.19797820459091e-13
7.83386412885651e-13
1.81634268744791e-13
8.00849706011634e-13
2.38002269053509e-13
8.14196166796874e-13
2.90280523938822e-13
8.23843733096242e-13
3.39774674288627e-13
8.30012298687286e-13
3.87749296872448e-13
8.32827890431853e-13
4.35477104984294e-13
8.32312498582005e-13
4.8425973512961e-13
8.28365298933087e-13
5.3548473038987e-13
8.20763467279199e-13
5.90656548418744e-13
8.09159670228424e-13
6.51480890867591e-13
7.92957096124668e-13
7.19910801677034e-13
7.71378287582828e-13
7.98277014411718e-13
7.4328831036667e-13
8.89427954004353e-13
7.06963294799339e-13
9.96956454288668e-13
6.59794454130581e-13
1.1255071895459e-12
5.97936876251164e-13
1.28125036021997e-12
5.15331397204002e-13
1.47254791697844e-12
4.02268965616536e-13
1.71099720615724e-12
2.42697206288289e-13
2.01289167166377e-12
9.94433415553343e-15
2.40122423762115e-12
-3.39929509554192e-13
2.90776809128216e-12
-8.77742566278803e-13
3.57439876077887e-12
-1.70966284837527e-12
4.44561590588235e-12
-2.97233689189607e-12
5.53624161050518e-12
-4.72927321028496e-12
6.74323739489339e-12
-6.69720746003064e-12
7.56941126547245e-12
-7.0243158162692e-12
6.89316171007943e-12
-1.3706374229332e-12
2.82047999939641e-12
1.68826484004995e-11
2.41575417581633e-11
-7.34867808365871e-13
2.44636294534398e-11
-3.01307797833188e-12
1.92398423127341e-11
-4.35786001020292e-12
4.98941166568663e-13
-4.63105546488954e-12
-6.32328007704005e-12
-4.29912843664336e-12
-6.78710342933318e-12
-3.73968857080527e-12
-5.13837651180765e-12
-3.15389430005486e-12
-3.43775491823172e-12
-2.6213307189802e-12
-2.12916674654655e-12
-2.16412869722625e-12
-1.22193948568482e-12
-1.78012874427052e-12
-6.08347133394785e-13
-1.45984016813446e-12
-1.90886110007405e-13
-1.19233211245092e-12
9.94286844288692e-14
-9.67690976058718e-13
3.07269369697586e-13
-7.77670733767761e-13
4.60648500217549e-13
-6.15667320167928e-13
5.77095217276252e-13
-4.76456852486329e-13
6.67610489963646e-13
-3.5589254280432e-13
7.39266801093422e-13
-2.50653812692993e-13
7.96685900735845e-13
-1.58033455888385e-13
8.43004577263574e-13
-7.57612090856779e-14
8.80361944905781e-13
-1.91201731556572e-15
9.1027560946516e-13
6.52100801910753e-14
9.33813834031078e-13
1.2712652876654e-13
9.51734477456004e-13
1.85243083897137e-13
9.6457360904056e-13
2.40893051869078e-13
9.72629889481927e-13
2.95368305003378e-13
9.76072118092738e-13
3.49967929836346e-13
9.74920556431726e-13
4.0601855671939e-13
9.69046486436978e-13
4.64933417854488e-13
9.58146352325192e-13
5.28240525391667e-13
9.41757236122065e-13
5.97646703815981e-13
9.19108869969642e-13
6.75097919642468e-13
8.89185591969502e-13
7.62883386458501e-13
8.50517802471859e-13
8.63746029860569e-13
8.0093247331764e-13
9.81031571684095e-13
7.37233413812547e-13
1.11891708223211e-12
6.54757920186699e-13
1.28265133689811e-12
5.46400268838924e-13
1.4788405726052e-12
4.011178126026e-13
1.71569169420113e-12
2.01289209047331e-13
2.00304000106423e-12
-8.13583269956986e-14
2.3517091282369e-12
-4.91712403149448e-13
2.77105811225964e-12
-1.09905763902271e-12
3.26327654372571e-12
-2.00221959498896e-12
3.80685015197735e-12
-3.31371972155228e-12
4.32616642100024e-12
-5.04204484208391e-12
4.6327596370659e-12
-6.789496691934e-12
4.37204804082615e-12
-6.53704824502078e-12
3.08734405467405e-12
1.51056381044093e-13
8.23521645208045e-13
1.93694751085608e-11
2.51129917404674e-11
2.37457593104868e-13
2.44107743535174e-11
-7.3651667097803e-13
2.04382892544467e-11
-2.25265971015067e-12
2.22845758644203e-12
-3.10171578808808e-12
-5.27283999026549e-12
-3.33184827874148e-12
-6.36596175234485e-12
-3.17388435609051e-12
-5.11288865516609e-12
-2.84798708676287e-12
-3.5851701562333e-12
-2.47483486004617e-12
-2.32703073792941e-12
-2.11376939164997e-12
-1.40983754841793e-12
-1.78779179229271e-12
-7.62656390567893e-13
-1.50298865320256e-12
-3.05156245267626e-13
-1.25763506653428e-12
2.3689877809049e-14
-1.04715621492074e-12
2.65617831386709e-13
-8.6638721862288e-13
4.47994306734961e-13
-7.10502242687585e-13
5.88653246059981e-13
-5.75320205609237e-13
6.99217423311761e-13
-4.57314551565261e-13
7.87403708118443e-13
-3.53548165650004e-13
8.58415768371697e-13
-2.61543240322006e-13
9.15852269423316e-13
-1.79189310782114e-13
9.6221985276731e-13
-1.04659491482671e-13
9.9932669406123e-13
-3.63311396668555e-14
1.02844706735534e-12
2.72568037194207e-14
1.05050879378254e-12
8.74763975870547e-14
1.06613795680133e-12
1.45614876655619e-13
1.0757257361378e-12
2.02931965815259e-13
1.07946759245797e-12
2.60689341352776e-13
1.07738890298347e-12
3.20177519412263e-13
1.06933059675006e-12
3.82759881536176e-13
1.05492280089767e-12
4.49911898406931e-13
1.03358867082039e-12
5.23256711676487e-13
1.00441619241623e-12
6.0463494315948e-13
9.66172478003414e-13
6.96173346192247e-13
9.17109728446047e-13
8.00365676147237e-13
8.54691708897872e-13
9.2016413861976e-13
7.75276303199702e-13
1.05909662540762e-12
6.73637276063007e-13
1.22133772485721e-12
5.42042110739795e-13
1.41167601861152e-12
3.68855020468209e-13
1.63518121635394e-12
1.36200087597538e-13
1.89627662396708e-12
-1.83521154629424e-13
2.19643843986703e-12
-6.3220438508461e-13
2.52919811081259e-12
-1.27111821349637e-12
2.87108526139507e-12
-2.1819302591894e-12
3.16239423446558e-12
-3.44058062893291e-12
3.28473602680744e-12
-4.99610352630123e-12
3.0276273625891e-12
-6.35727114443395e-12
2.1797819963252e-12
-5.5031456875768e-12
7.0526900168115e-13
1.82076217479005e-12
-2.32418034086222e-13
2.04887459955776e-11
2.49849154842362e-11
6.37251155022772e-13
2.39264367555744e-11
2.96526412612329e-13
2.09548496731723e-11
-1.12817647107908e-12
3.81429620733619e-12
-2.14927021804843e-12
-4.10154454854987e-12
-2.63210798159107e-12
-5.74189558681815e-12
-2.69765231147601e-12
-4.91265754381644e-12
-2.54134968098718e-12
-3.6110265667021e-12
-2.28701558336835e-12
-2.45355495443116e-12
-2.00654747258526e-12
-1.56418665001669e-12
-1.734766400872e-12
-9.09495359239318e-13
-1.48659679593737e-12
-4.29286139769542e-13
-1.26637164777996e-12
-7.32508313854898e-14
-1.07346754141163e-12
1.95323117997293e-13
-9.05259970045055e-13
4.01762846068237e-13
-7.58528918693617e-13
5.63284952315285e-13
-6.30124638679928e-13
6.91568690500183e-13
-5.17181946353036e-13
7.94609429348946e-13
-4.17195872347636e-13
8.77968899276942e-13
-3.27973285380687e-13
9.4555935628942e-13
-2.47607434077765e-13
1.00017623895024e-12
-1.74413436915172e-13
1.04385592470868e-12
-1.06875561399856e-13
1.07804453046792e-12
-4.3614172966222e-14
1.10381281831647e-12
1.66676189455269e-14
1.12187152684681e-12
7.51972324613613e-14
1.13268806547132e-12
1.33173408411295e-13
1.13648633683119e-12
1.91798466514741e-13
1.13329457478025e-12
2.52299812871601e-13
1.12292731428361e-12
3.15965540194095e-13
1.10495993669646e-12
3.84188363385261e-13
1.07870901354243e-12
4.58477564150182e-13
1.04315242087739e-12
5.40524378306859e-13
9.96874986264028e-13
6.32251639871622e-13
9.37903959170214e-13
7.35850871488572e-13
8.63437335866527e-13
8.53830614600799e-13
7.69527398571917e-13
9.89038570377175e-13
6.50615765442325e-13
1.14460222972289e-12
4.98707307090526e-13
1.32367333546546e-12
3.02155061107966e-13
1.52875513851885e-12
4.37535211794613e-14
1.76026233359588e-12
-3.01986233522016e-13
2.01353743120565e-12
-7.71848140979334e-13
2.27311081904274e-12
-1.41622695102412e-12
2.50338849185456e-12
-2.29654306957766e-12
2.63154245344302e-12
-3.4512504296675e-12
2.53506936195544e-12
-4.77911525033561e-12
2.02616837031201e-12
-5.72235878255369e-12
1.00119038006307e-12
-4.34306431734274e-12
-3.94800610458909e-13
3.35898639083291e-12
-6.84851288211374e-13
2.09091110327502e-11
2.43702790121218e-11
7.36251110437547e-13
2.33047758327255e-11
5.72355156907244e-13
2.12404781171383e-11
-6.43856447245958e-13
5.13716913103945e-12
-1.61049629006903e-12
-3.03719444679868e-12
-2.15168607118194e-12
-5.1100196029594e-12
-2.3185011663958e-12
-4.6603026396695e-12
-2.26296544224741e-12
-3.58433183620836e-12
-2.0920543069246e-12
-2.54423906442504e-12
-1.87513800945703e-12
-1.70212617915781e-12
-1.64996622684845e-12
-1.05656082432459e-12
-1.43543979655318e-12
-5.66397761104093e-13
-1.23947673224735e-12
-1.92410641799947e-13
-1.06420707045282e-12
9.62807505221821e-14
-9.08992696169866e-13
3.22212824592432e-13
-7.71989493579616e-13
5.01385236218177e-13
-6.50981130432329e-13
6.45098742051003e-13
-5.43741202955082e-13
7.61338281961097e-13
-4.48193660579162e-13
8.5581421926941e-13
-3.62449349202008e-13
9.3263083937435e-13
-2.84812679555328e-13
9.94778953732338e-13
-2.13749153232273e-13
1.0444626332672e-12
-1.47867868041961e-13
1.08327426443714e-12
-8.58745586677461e-14
1.11238822667638e-12
-2.6557931814981e-14
1.13259962909426e-12
3.12463607428327e-14
1.14442914318405e-12
8.86678160547591e-14
1.14813606024204e-12
1.46843269272342e-13
1.14374642125942e-12
2.06932582984388e-13
1.13105130326841e-12
2.70144993013034e-13
1.10958215833261e-12
3.37775899317894e-13
1.0785679445001e-12
4.1121641229413e-13
1.03689633963398e-12
4.91997353312741e-13
9.83011745257051e-13
5.8182282001501e-13
9.14775066783419e-13
6.82580384709684e-13
8.29201703805431e-13
7.9633557286093e-13
7.2217559974002e-13
9.25291289137277e-13
5.88005284109062e-13
1.07162915718043e-12
4.18729458294888e-13
1.23710705289902e-12
2.03130911757795e-13
1.4222374033618e-12
-7.47372117210335e-14
1.62465474791893e-12
-4.37473014693787e-13
1.83610077056179e-12
-9.15939395318387e-13
2.03708235534237e-12
-1.54925064836608e-12
2.18901133130299e-12
-2.37964849370735e-12
2.22146143288641e-12
-3.41358697923996e-12
2.02839077027491e-12
-4.51379121577587e-12
1.46414872652969e-12
-5.08181211691087e-12
4.93340575401094e-13
-3.28890284160498e-12
-6.99836358273005e-13
4.64107899907886e-12
-8.06328320501365e-13
2.10944234503238e-11
2.36023705070395e-11
6.84871849327787e-13
2.26902584867972e-11
5.06541844195544e-13
2.14816453933395e-11
-4.77297106423418e-13
6.17011290948916e-12
-1.30363363405318e-12
-2.16760366462162e-12
-1.81159331898868e-12
-4.56325595785674e-12
-2.01272986416045e-12
-4.42376595234182e-12
-2.01481718741957e-12
-3.54904462302667e-12
-1.90214310655166e-12
-2.62501238837589e-12
-1.73486929091336e-12
-1.83829495971287e-12
-1.54894402196437e-12
-1.21195389624722e-12
-1.36429614288152e-12
-7.21008409270587e-13
-1.19072590925329e-12
-3.36423466260888e-13
-1.03221127942383e-12
-3.31628470252007e-14
-8.89609973563673e-13
2.08183577288932e-13
-7.62218625063116e-13
4.02054004026673e-13
-6.48636178801736e-13
5.59051038045446e-13
-5.47224389028661e-13
6.86926073417148e-13
-4.56312086870919e-13
7.91358134873292e-13
-3.74303180309456e-13
8.76531359555025e-13
-2.99714415143558e-13
9.45552504104912e-13
-2.31168127357632e-13
1.00073783052105e-12
-1.67393578899263e-13
1.04378922056687e-12
-1.0718854304437e-13
1.07595614627127e-12
-4.94254313354189e-14
1.09810972670253e-12
6.9906739725187e-15
1.11080928545971e-12
6.31242951444346e-14
1.11434511077789e-12
1.20043603986169e-13
1.10874518646544e-12
1.78837361015479e-13
1.09377868387656e-12
2.40636758554058e-13
1.06893991918604e-12
3.06637286223465e-13
1.03339287213135e-12
3.78110818318662e-13
9.85953634958254e-13
4.56428792858474e-13
9.24966355273239e-13
5.43081185954087e-13
8.48179050000203e-13
6.39658175745994e-13
7.52507611815562e-13
7.47812341295274e-13
6.33781254347835e-13
8.69158735929124e-13
4.86347186429101e-13
1.00505470647327e-12
3.02508852640917e-13
1.15612140392271e-12
7.17842583824225e-14
1.32137122831232e-12
-2.20160118493929e-13
1.49659963195526e-12
-5.92706007624181e-13
1.67167917936195e-12
-1.07078190293671e-12
1.82614475245045e-12
-1.68314292393168e-12
1.92330367122254e-12
-2.45576240859709e-12
1.90211615592243e-12
-3.3706701492009e-12
1.67918636588522e-12
-4.26795882754559e-12
1.1522728020077e-12
-4.52946780538221e-12
3.23901112351043e-13
-2.430206730822e-12
-6.37779714014802e-13
5.63655610591816e-12
-7.58167196842646e-13
2.12412277743854e-11
2.28499948161408e-11
5.66173123366634e-13
2.21517496495936e-11
3.41177554653938e-13
2.17157380161693e-11
-4.32740989794453e-13
6.9427316867708e-12
-1.10915556432132e-12
-1.49514563888083e-12
-1.55345082319931e-12
-4.12488360073867e-12
-1.75740188926838e-12
-4.22745884390114e-12
-1.79213067123007e-12
-3.52311228605864e-12
-1.72077074761631e-12
-2.70583045620904e-12
-1.59260619395489e-12
-1.9763218819147e-12
-1.43975061335028e-12
-1.37499782819295e-12
-1.28152010786033e-12
-8.89762996879683e-13
-1.12848994068648e-12
-5.00351514439156e-13
-9.85793360983119e-13
-1.87169586416944e-13
-8.55384704846045e-13
6.60202249491109e-14
-7.37467788787451e-13
2.7191316048371e-13
-6.3133757584364e-13
4.40207956512932e-13
-5.35870744956327e-13
5.78243767297179e-13
-4.4977455997085e-13
6.91533263835873e-13
-3.71733017572518e-13
7.84243615166279e-13
-3.00466073571664e-13
8.59520126738082e-13
-2.3474714801149e-13
9.19739467521303e-13
-1.73426585692933e-13
9.66682761674921e-13
-1.15401785646074e-13
1.00165310451395e-12
-5.96241476157802e-14
1.02557670999617e-12
-5.07353653966236e-15
1.03904787154315e-12
4.92479959293299e-14
1.04237872124083e-12
1.04341718420504e-13
1.03559929835374e-12
1.61222648537976e-13
1.01846473587145e-12
2.20944631634985e-13
9.90435742926245e-13
2.84599879195922e-13
9.50635432087343e-13
3.53342396241101e-13
8.9782467924048e-13
4.28388474160266e-13
8.30282846597223e-13
5.11020601214771e-13
7.45698728474583e-13
6.02549053568023e-13
6.4095931836249e-13
7.04248329731429e-13
5.11935190406585e-13
8.17216500425554e-13
3.53149447176188e-13
9.42115105158302e-13
1.57344405102588e-13
1.07866556206385e-12
-8.5028446868379e-14
1.22478947660151e-12
-3.86509036371253e-13
1.3751549485402e-12
-7.63239199524137e-13
1.51889922090968e-12
-1.2346219121265e-12
1.63626773197801e-12
-1.82052613891299e-12
1.69457625992467e-12
-2.53399354207748e-12
1.64396854447637e-12
-3.33986940666832e-12
1.42226909257525e-12
-4.06576897350318e-12
9.63219982568089e-13
-4.08879947516762e-12
2.87246379643156e-13
-1.76983102305827e-12
-4.63760704079807e-13
6.373906309165e-12
-6.34221934689326e-13
2.13928889381051e-11
2.21951564991841e-11
4.29909549340426e-13
2.17098019814557e-11
1.8203197578615e-13
2.19247957217355e-11
-4.20738090132156e-13
7.50015567719236e-12
-9.66730964524928e-13
-9.93824697087228e-13
-1.3445377343713e-12
-3.79128611839559e-12
-1.53787712763802e-12
-4.07845295969671e-12
-1.59071673760105e-12
-3.51478483349779e-12
-1.5490475219869e-12
-2.79209864873153e-12
-1.4519187131362e-12
-2.11811399569161e-12
-1.32700415270483e-12
-1.544694177584e-12
-1.19214899600036e-12
-1.0696037755314e-12
-1.05798447288761e-12
-6.79786747658442e-13
-9.30266162086641e-13
-3.60507732007796e-13
-8.1170765747658e-13
-9.85545332353246e-14
-7.03204533644561e-13
1.16963975309113e-13
-6.04628047955895e-13
2.94730865146396e-13
-5.15296642111961e-13
4.41540185676782e-13
-4.34258965408416e-13
5.62639933606023e-13
-3.60454968366554e-13
6.62094299789264e-13
-2.92800241132986e-13
7.43028125097189e-13
-2.30221291660732e-13
8.07835096458681e-13
-1.7168523866198e-13
8.58339415279735e-13
-1.16188597385378e-13
8.95879968878408e-13
-6.2764282655698e-14
9.21420892290604e-13
-1.04681047858008e-14
9.3558492064083e-13
4.16290346650884e-14
9.38699321547907e-13
9.44576955508746e-14
9.30797911583421e-13
1.48957594341578e-13
9.11626114027907e-13
2.06100568130515e-13
8.80617242682706e-13
2.66880971947952e-13
8.36871122713453e-13
3.32334303861392e-13
7.7911173490574e-13
4.03522583822055e-13
7.0559125491685e-13
4.81533770820667e-13
6.13977502606348e-13
5.67422249854584e-13
5.0119028886487e-13
6.62121595622583e-13
3.63224958367017e-13
7.6628618090525e-13
1.94881053140612e-13
8.80009041727829e-13
-1.05384726591532e-14
1.00232959342176e-12
-2.61541583273515e-13
1.13042831881411e-12
-5.68823488923729e-13
1.25837486964295e-12
-9.45442322942366e-13
1.37531113752875e-12
-1.40589825409276e-12
1.46306269779023e-12
-1.96277607607748e-12
1.49357267332042e-12
-2.61926934879864e-12
1.42751804238682e-12
-3.32899919009199e-12
1.21990752295402e-12
-3.91385846535561e-12
8.31022578300064e-13
-3.75579752083541e-12
2.8731848466619e-13
-1.28126637254083e-12
-2.92225762676933e-13
6.89823412790682e-12
-4.90557732383259e-13
2.15332900363749e-11
2.16608319877186e-11
3.04161619466461e-13
2.1361991681354e-11
6.05724807792302e-14
2.2093520640845e-11
-4.09907616873409e-13
7.89341515413784e-12
-8.50398066242234e-13
-6.27177485104215e-13
-1.16835391833775e-12
-3.54480648302622e-12
-1.34576955440241e-12
-3.97137778825015e-12
-1.40782179357506e-12
-3.52249132123939e-12
-1.38746697027266e-12
-2.88186398321869e-12
-1.31498231417402e-12
-2.25982462024993e-12
-1.21365513973375e-12
-1.71521788631379e-12
-1.09946211302223e-12
-1.25310241518373e-12
-9.8260424253712e-13
-8.66169376181949e-13
-8.69064424321216e-13
-5.43871956154038e-13
-7.62029503248781e-13
-2.75769958808737e-13
-6.6289815270946e-13
-5.2742639603906e-14
-5.71993049040436e-13
1.32827545527944e-13
-4.89004830777883e-13
2.87112613303112e-13
-4.13283468095208e-13
4.15023374252952e-13
-3.44001111884245e-13
5.20454555487812e-13
-2.80253301962878e-13
6.06457014196773e-13
-2.21115707463658e-13
6.75411588223756e-13
-1.65670661807901e-13
7.29150300233383e-13
-1.13014243470789e-13
7.69033192379473e-13
-6.22628829029017e-14
7.9604500660704e-13
-1.25499103688408e-14
8.10831641629551e-13
3.69814504425724e-14
8.13729895245236e-13
8.71889552845497e-14
8.04778162072272e-13
1.38938592402388e-13
7.83712743773251e-13
1.9311487732141e-13
7.49953073578951e-13
2.50612767002997e-13
7.025873016164e-13
3.12353523323691e-13
6.40318197623718e-13
3.7925175233788e-13
5.61403406688648e-13
4.52214168737227e-13
4.63523087316721e-13
5.32060242322658e-13
3.4368303042536e-13
6.19428521219181e-13
1.98063754136547e-13
7.14602813229167e-13
2.18141938073752e-14
8.17231761226044e-13
-1.91130798345326e-13
9.25861698027278e-13
-4.48193788768016e-13
1.03722661267438e-12
-7.58278525266293e-13
1.14519890680625e-12
-1.13161905781993e-12
1.2394049966364e-12
-1.57851174056653e-12
1.30364538417388e-12
-2.1057699340855e-12
1.31440193342899e-12
-2.70933306461717e-12
1.24137272992456e-12
-3.33611738622515e-12
1.05258392660613e-12
-3.80637368761981e-12
7.2648514146912e-13
-3.5122924709441e-12
2.89206917124689e-13
-9.27719710686484e-13
-1.58862808745226e-13
7.26100442007607e-12
-3.58164459879973e-13
2.1646113949495e-11
2.12432123824132e-11
2.01541375706317e-13
2.10929193752775e-11
-2.19996420128132e-14
2.22163644763897e-11
-3.92696400615507e-13
8.16462434199346e-12
-7.49579314940958e-13
-3.64176900399542e-13
-1.01620168135695e-12
-3.36819483981625e-12
-1.175872571862e-12
-3.89960569735096e-12
-1.24140500389079e-12
-3.54369566463354e-12
-1.23611835386802e-12
-2.97321438001939e-12
-1.18310683286145e-12
-2.3985351968569e-12
-1.10161513577982e-12
-1.88227324218937e-12
-1.00561648101559e-12
-1.43470448458654e-12
-9.04571781904067e-13
-1.05298599920131e-12
-8.04403664805878e-13
-7.30070459901069e-13
-7.08528042765849e-13
-4.57996093564861e-13
-6.18683337293102e-13
-2.29299986131036e-13
-5.35533601770796e-13
-3.74273507359854e-14
-4.59068909911154e-13
1.23129812551151e-13
-3.88893956408966e-13
2.56903048757685e-13
-3.24388719695065e-13
3.67568590025734e-13
-2.64817506737557e-13
4.58065229883148e-13
-2.09395373896648e-13
5.30730495914992e-13
-1.57314372022481e-13
5.8737612288545e-13
-1.07772634472225e-13
6.29373907388251e-13
-5.99710875592233e-14
6.57712354584049e-13
-1.3120785751335e-14
6.73053429526729e-13
3.35611409238867e-14
6.75739582839006e-13
8.08566225481376e-14
6.65815666970242e-13
1.29554531115341e-13
6.43009818581431e-13
1.80453085481139e-13
6.0673730833288e-13
2.34353405680755e-13
5.56081695650577e-13
2.92057704016219e-13
4.8974999345102e-13
3.54345663424935e-13
4.06020459881182e-13
4.21956485169768e-13
3.02618386844731e-13
4.95501355300259e-13
1.7667670310531e-13
5.75368816814634e-13
2.46009706983376e-14
6.61543226563358e-13
-1.58060735656844e-13
7.53341695533316e-13
-3.7671167272165e-13
8.48988493394717e-13
-6.37700756256505e-13
9.45003972375255e-13
-9.48254275770943e-13
1.03535885708984e-12
-1.31610113817162e-12
1.11046569896003e-12
-1.74803526751088e-12
1.15622599398323e-12
-2.24643286472794e-12
1.15327687045373e-12
-2.80205576620663e-12
1.07867503361757e-12
-3.35835198916341e-12
9.09995265994811e-13
-3.73620179666589e-12
6.37463187884483e-13
-3.34050104117046e-12
2.84019868833488e-13
-6.77836491636021e-13
-6.61280248403096e-14
7.50418783377694e-12
-2.50206052002616e-13
2.17233833303323e-11
2.09222249212357e-11
1.2445153860323e-13
2.08863767227296e-11
-7.33737313694821e-14
2.22994810125883e-11
-3.68969981290666e-13
8.34962523192413e-12
-6.59455228076746e-13
-1.77286883655775e-13
-8.82658213852315e-13
-3.24380614941382e-12
-1.02435887761834e-12
-3.85400416514633e-12
-1.0895984515561e-12
-3.57303705952248e-12
-1.09466354754909e-12
-3.06186626711465e-12
-1.05692070663183e-12
-2.52952876760335e-12
-9.92032412529124e-13
-2.04021786791354e-12
-9.11985851923169e-13
-1.60780568237511e-12
-8.25325046704662e-13
-1.2328349266641e-12
-7.37696439639217e-13
-9.11113460500305e-13
-6.52565667497883e-13
-6.36830717839549e-13
-5.7186426925776e-13
-4.04038210587066e-13
-4.96492599195226e-13
-2.07199521083514e-13
-4.26676567319618e-13
-4.14711126129395e-14
-3.62233143738625e-13
9.72744210022272e-14
-3.0272004748316e-13
2.12461393306712e-13
-2.47555695278713e-13
3.06892388345521e-13
-1.96084189205657e-13
3.82836892064706e-13
-1.47607880511649e-13
4.42066558658129e-13
-1.01418727762455e-13
4.85948918560166e-13
-5.68029213841863e-14
5.15467334420621e-13
-1.30529698939666e-14
5.31296039725645e-13
3.05379570104396e-14
5.33777771638885e-13
7.46795293177515e-14
5.22959762777327e-13
1.20080155259626e-13
4.98570332991118e-13
1.67451215341602e-13
4.60026734281072e-13
2.17500922396494e-13
4.06414362517022e-13
2.70919420946634e-13
3.36462774525364e-13
3.28361629130575e-13
2.4848450919803e-13
3.904110633246e-13
1.40280824372705e-13
4.57501152558315e-13
9.13253140786652e-15
5.29815462324735e-13
-1.4830164629369e-13
6.07105636450971e-13
-3.36047849226404e-13
6.88456827222165e-13
-5.5884780856065e-13
7.71916872214579e-13
-8.2203405681116e-13
8.53976054788836e-13
-1.13130335712492e-12
9.28917210636517e-13
-1.4922267385666e-12
9.88108080979324e-13
-1.90874639056536e-12
1.01951389259655e-12
-2.37992179958727e-12
1.00743510883752e-12
-2.89295245823726e-12
9.34768551176684e-13
-3.3900177885117e-12
7.859949253369e-13
-3.69376450615911e-12