/*--------------------------------*- C++ -*----------------------------------*\
  =========                 |
  \\      /  F ield         | OpenFOAM: The Open Source CFD Toolbox
   \\    /   O peration     | Website:  https://openfoam.org
    \\  /    A nd           | Version:  10
     \\/     M anipulation  |
\*---------------------------------------------------------------------------*/
FoamFile
{
    format      ascii;
    class       volScalarField;
    location    "5.2";
    object      rho;
}
// * * * * * * * * * * * * * * * * * * * * * * * * * * * * * * * * * * * * * //

dimensions      [1 -3 0 0 0 0 0];

internalField   nonuniform List<scalar> 
2500
(
1.14394712613581
1.14398854102708
1.14404892846085
1.14408683363276
1.14410711845536
1.14411738476649
1.14412239358909
1.1441247424948
1.14412579388749
1.14412623831156
1.1441264217546
1.14412649381584
1.1441265213411
1.14412653398308
1.14412654084669
1.14412654620779
1.14412654889975
1.14412655188001
1.14412655514428
1.14412655744706
1.14412655943839
1.14412656119483
1.14412656265724
1.14412656354986
1.14412656447218
1.1441265652972
1.14412656561368
1.14412656579038
1.14412656575874
1.14412656543149
1.14412656483871
1.14412656370897
1.14412656226016
1.14412656039168
1.14412655813744
1.14412655487736
1.14412654902538
1.1441265369879
1.14412650508753
1.1441264268951
1.14412623256539
1.14412576479011
1.14412468648812
1.14412231441669
1.14411730584569
1.1441071138334
1.14408693268667
1.14404889851066
1.14398787336546
1.14394762135137
1.14827524591021
1.14844915497137
1.14862181621364
1.14873036259359
1.14879100347832
1.14882326324034
1.14883981751752
1.14884795729304
1.14885176178235
1.14885344399781
1.1488541499001
1.148854430544
1.14885453662501
1.14885457608427
1.14885459105561
1.14885459759716
1.14885460038356
1.14885460245735
1.14885460445236
1.1488546059729
1.14885460735255
1.14885460867597
1.14885460982082
1.14885461055242
1.14885461119311
1.14885461178719
1.14885461206971
1.14885461227207
1.14885461244505
1.14885461234102
1.14885461206506
1.14885461154916
1.14885461031959
1.14885460841698
1.14885460564294
1.14885459940457
1.14885458282479
1.1488545381872
1.14885441854659
1.1488541128548
1.14885336364785
1.14885161443327
1.14884773337837
1.14883954607597
1.14882304856276
1.14879102398466
1.14873062666718
1.14862152483655
1.14844659074808
1.14827616879641
1.15248209359439
1.15275107821114
1.15298243364938
1.1531243402116
1.15320309208004
1.15324488047832
1.15326632173702
1.15327688522788
1.15328184029619
1.15328404245425
1.15328496972491
1.15328533948457
1.15328547925804
1.1532855300343
1.15328554806243
1.15328555462914
1.15328555698899
1.15328555824361
1.15328555927121
1.15328556008208
1.15328556088544
1.15328556175303
1.15328556255462
1.15328556307036
1.15328556345911
1.1532855638336
1.15328556402647
1.15328556419463
1.15328556442042
1.15328556447073
1.15328556449096
1.15328556443349
1.15328556344035
1.15328556167672
1.15328555898807
1.15328555187477
1.15328553127908
1.15328547376018
1.15328531876518
1.15328492057661
1.15328394466435
1.15328166987105
1.15327663279564
1.15326602264143
1.15324465204597
1.1532031043117
1.15312447759499
1.15298140891129
1.15274602730412
1.15247785300118
1.15596556943928
1.15625278509324
1.15647036458931
1.15659879766755
1.15666765068806
1.15670302324898
1.15672067741121
1.1567291877724
1.15673311452409
1.15673483844645
1.15673555741022
1.15673584189603
1.15673594860446
1.15673598684931
1.15673600004269
1.15673600446555
1.15673600583893
1.15673600639588
1.1567360067897
1.15673600711515
1.15673600749579
1.15673600798953
1.15673600849651
1.1567360088253
1.1567360090313
1.15673600923368
1.15673600934129
1.15673600945195
1.15673600963656
1.15673600971883
1.15673600981708
1.15673601002921
1.15673600944531
1.15673600823701
1.1567360065503
1.15673600168505
1.15673598690468
1.15673594458153
1.15673582883366
1.15673552732559
1.15673477859514
1.1567330087549
1.15672902704905
1.15672047908505
1.15670285374469
1.15666758478174
1.15659858931033
1.1564685593766
1.15624604040029
1.15595511523347
1.15848927555032
1.15873358929868
1.15890103230492
1.15899612624095
1.1590453410771
1.15906980977421
1.15908169155878
1.15908730293181
1.15908985549959
1.15909096579033
1.15909142614505
1.15909160762722
1.15909167545856
1.15909169960341
1.15909170777149
1.15909171031249
1.15909171095275
1.15909171111213
1.15909171118986
1.15909171126149
1.15909171138683
1.1590917116188
1.15909171190654
1.15909171209535
1.15909171218281
1.15909171226726
1.159091712315
1.15909171237595
1.15909171249294
1.15909171256796
1.15909171268548
1.15909171295775
1.15909171267217
1.15909171200924
1.15909171114584
1.15909170831401
1.15909169940222
1.15909167345336
1.15909160165967
1.15909141281154
1.15909093937695
1.15908980820293
1.15908722969181
1.15908159933072
1.15906972682763
1.15904527560654
1.15899579506001
1.15889909968515
1.15872677740525
1.15847569658279
1.16011982008798
1.16029591914583
1.16040692781643
1.16046769936476
1.16049811948268
1.16051278228726
1.16051972081682
1.16052293687766
1.16052438239747
1.1605250069603
1.16052526515276
1.16052536685293
1.16052540483525
1.16052541830705
1.1605254227869
1.16052542407091
1.16052542429417
1.16052542428097
1.16052542425945
1.16052542425157
1.16052542425618
1.1605254243313
1.16052542447821
1.16052542457464
1.16052542459695
1.16052542461741
1.16052542463334
1.16052542466248
1.16052542472416
1.16052542477913
1.16052542487844
1.16052542510148
1.16052542499249
1.16052542470132
1.16052542434223
1.16052542286324
1.16052541808226
1.16052540402961
1.16052536479031
1.16052526089151
1.16052499878329
1.16052436773224
1.16052291434872
1.16051969418634
1.16051276318174
1.16049809455597
1.16046743381184
1.16040538187242
1.16029033616358
1.16010685954217
1.16107350285669
1.16118489596461
1.16125023677232
1.16128479990281
1.16130157598138
1.16130943341448
1.1613130631143
1.1613147169426
1.16131545273249
1.16131576914716
1.16131589983778
1.16131595137681
1.16131597064541
1.16131597746459
1.16131597969148
1.16131598026131
1.16131598030622
1.16131598026066
1.16131598021155
1.16131598019227
1.16131598017437
1.1613159801807
1.16131598024689
1.16131598028845
1.16131598028192
1.16131598028164
1.16131598028665
1.1613159802958
1.16131598032462
1.16131598035963
1.16131598042806
1.1613159805752
1.16131598054952
1.16131598045852
1.16131598034479
1.16131597962485
1.16131597727717
1.16131597035672
1.16131595088425
1.16131589911506
1.16131576805624
1.16131545097343
1.1613147150141
1.16131306416648
1.16130944417741
1.1613015856464
1.16128465328856
1.16124923031135
1.1611810110584
1.16106339920555
1.1615846747444
1.16164795392265
1.16168281009467
1.16170066618753
1.16170909147236
1.16171293483721
1.16171467086333
1.16171544943876
1.16171579276571
1.16171593992821
1.16171600074972
1.16171602479708
1.16171603380728
1.16171603699021
1.16171603800362
1.16171603823352
1.16171603822998
1.1617160381882
1.16171603814718
1.16171603812497
1.16171603811185
1.16171603810848
1.16171603812984
1.16171603814198
1.16171603812956
1.16171603812371
1.16171603812507
1.16171603812945
1.16171603814211
1.16171603816216
1.16171603820269
1.16171603828237
1.16171603828965
1.16171603828029
1.16171603825201
1.16171603792506
1.16171603685762
1.16171603370084
1.1617160247618
1.16171600095081
1.16171594060293
1.16171579423808
1.16171545266054
1.16171467852842
1.16171295221735
1.16170911511288
1.16170061019962
1.16168225251105
1.16164558701558
1.16157790007553
1.16183831597232
1.16187113506926
1.16188824340703
1.16189674871752
1.16190065909672
1.1619024001936
1.16190317033494
1.16190351065221
1.16190365953886
1.16190372321665
1.16190374957836
1.16190376003763
1.16190376396786
1.16190376535353
1.16190376578262
1.16190376586783
1.1619037658558
1.16190376582824
1.16190376580228
1.16190376578637
1.16190376577887
1.1619037657761
1.16190376577969
1.16190376577909
1.16190376577081
1.1619037657657
1.16190376576638
1.16190376576879
1.16190376577406
1.16190376578476
1.16190376580608
1.16190376584374
1.16190376585213
1.1619037658545
1.16190376585327
1.16190376572353
1.16190376527156
1.16190376392063
1.16190376007538
1.16190374983129
1.16190372389212
1.16190366096077
1.1619035135944
1.16190317677747
1.16190241420916
1.16190068175763
1.16189673916926
1.16188797376948
1.16186984436772
1.16183428641837
1.1619558115635
1.16197154634998
1.1619793626968
1.16198314074846
1.16198483671129
1.16198557521768
1.16198589554396
1.16198603512598
1.16198609575232
1.16198612164337
1.16198613238719
1.16198613666721
1.16198613828069
1.16198613884821
1.16198613901828
1.16198613904724
1.16198613903866
1.16198613902345
1.16198613900939
1.16198613900012
1.16198613899514
1.16198613899266
1.1619861389924
1.16198613899043
1.16198613898604
1.16198613898321
1.16198613898348
1.16198613898465
1.16198613898709
1.16198613899242
1.1619861390027
1.16198613901955
1.16198613902566
1.16198613902928
1.16198613903236
1.1619861389841
1.16198613880381
1.161986138256
1.16198613669126
1.16198613252827
1.16198612201518
1.16198609654915
1.16198603682243
1.16198589938801
1.16198558397372
1.16198485275115
1.16198314720356
1.16197924732387
1.1619709060207
1.16195364108586
1.1620069819713
1.16201402397909
1.16201737852565
1.1620189576692
1.1620196510386
1.162019946847
1.16202007282148
1.16202012698868
1.16202015035715
1.1620201603267
1.16202016447513
1.1620201661349
1.16202016676267
1.16202016698285
1.16202016704678
1.16202016705586
1.16202016705097
1.16202016704352
1.1620201670367
1.16202016703198
1.16202016702915
1.16202016702761
1.16202016702687
1.16202016702548
1.16202016702348
1.16202016702221
1.16202016702236
1.16202016702295
1.16202016702412
1.16202016702666
1.1620201670313
1.16202016703853
1.16202016704208
1.1620201670446
1.16202016704688
1.16202016703006
1.1620201669618
1.1620201667498
1.16202016614309
1.16202016453305
1.16202016048366
1.16202015070585
1.16202012777572
1.16202007473894
1.16201995153857
1.16201966054252
1.1620189659854
1.16201733470229
1.16201373134417
1.16200590738866
1.16202805442029
1.16203101953609
1.16203238186027
1.1620330074659
1.16203327656914
1.16203338923006
1.16203343639217
1.16203345641492
1.16203346499748
1.16203346865622
1.16203347018315
1.16203347079674
1.16203347102957
1.16203347111098
1.16203347113393
1.16203347113653
1.16203347113413
1.16203347113081
1.1620334711278
1.16203347112564
1.16203347112426
1.16203347112347
1.16203347112299
1.16203347112231
1.16203347112151
1.16203347112105
1.16203347112118
1.16203347112149
1.16203347112207
1.16203347112325
1.16203347112526
1.16203347112826
1.16203347113007
1.16203347113148
1.16203347113268
1.16203347112721
1.16203347110255
1.16203347102387
1.16203347079847
1.16203347020236
1.16203346871079
1.16203346512531
1.16203345673003
1.16203343724031
1.16203339148378
1.16203328153793
1.16203301338632
1.16203236723572
1.16203089513588
1.16202755988529
1.16203629624382
1.16203747846813
1.16203800513108
1.16203824144307
1.16203834116467
1.16203838219366
1.16203839909637
1.1620384061858
1.16203840920573
1.16203841049228
1.16203841103078
1.16203841124811
1.16203841133083
1.16203841135965
1.16203841136749
1.16203841136818
1.16203841136721
1.16203841136587
1.16203841136466
1.16203841136378
1.1620384113632
1.16203841136288
1.16203841136268
1.16203841136243
1.16203841136217
1.16203841136206
1.16203841136218
1.16203841136238
1.16203841136269
1.16203841136324
1.16203841136411
1.16203841136533
1.1620384113662
1.16203841136693
1.16203841136753
1.16203841136591
1.16203841135737
1.16203841132927
1.16203841124872
1.16203841103647
1.16203841050844
1.16203840924607
1.16203840629852
1.16203839944
1.16203838318956
1.16203834352505
1.16203824480459
1.16203800100652
1.16203742889513
1.16203608281057
1.16203936470847
1.1620398134713
1.16204000824038
1.16204009376939
1.16204012922321
1.16204014357805
1.16204014940439
1.16204015181996
1.1620401528427
1.1620401532781
1.16204015346085
1.1620401535349
1.16204015356317
1.16204015357298
1.16204015357559
1.16204015357578
1.16204015357542
1.16204015357494
1.16204015357452
1.16204015357422
1.16204015357403
1.16204015357394
1.16204015357391
1.16204015357387
1.16204015357384
1.16204015357387
1.16204015357398
1.16204015357413
1.16204015357432
1.1620401535746
1.16204015357499
1.16204015357551
1.16204015357593
1.1620401535763
1.16204015357661
1.16204015357621
1.16204015357341
1.16204015356376
1.16204015353601
1.16204015346311
1.16204015328278
1.16204015285423
1.16204015185734
1.16204014953524
1.16204014399032
1.16204013026187
1.16204009543669
1.16204000738308
1.16203979483802
1.16203927770686
1.16204044909332
1.16204061201616
1.16204068120098
1.1620407109837
1.16204072312563
1.16204072796952
1.1620407299086
1.16204073070371
1.16204073103832
1.16204073118064
1.16204073124052
1.16204073126486
1.16204073127419
1.16204073127742
1.16204073127828
1.16204073127835
1.16204073127825
1.16204073127812
1.16204073127801
1.16204073127795
1.16204073127794
1.16204073127796
1.16204073127801
1.16204073127805
1.16204073127811
1.16204073127819
1.1620407312783
1.16204073127842
1.16204073127855
1.16204073127872
1.16204073127892
1.16204073127917
1.1620407312794
1.16204073127961
1.16204073127979
1.16204073127976
1.16204073127891
1.16204073127576
1.16204073126657
1.16204073124239
1.16204073118284
1.16204073104214
1.1620407307162
1.16204072995693
1.16204072813204
1.16204072355523
1.16204071173558
1.16204068116782
1.16204060537724
1.16204041540065
1.1620408062558
1.1620408630496
1.16204088673539
1.16204089674757
1.16204090076667
1.16204090234824
1.16204090297329
1.16204090322688
1.16204090333294
1.16204090337797
1.16204090339694
1.16204090340468
1.16204090340765
1.16204090340869
1.16204090340898
1.16204090340903
1.16204090340903
1.16204090340903
1.16204090340905
1.16204090340908
1.16204090340913
1.1620409034092
1.16204090340928
1.16204090340936
1.16204090340944
1.16204090340953
1.16204090340964
1.16204090340974
1.16204090340985
1.16204090340997
1.16204090341011
1.16204090341025
1.1620409034104
1.16204090341054
1.16204090341067
1.16204090341073
1.16204090341054
1.1620409034096
1.1620409034067
1.162040903399
1.16204090337999
1.16204090333526
1.16204090323201
1.16204090299158
1.1620409024105
1.16204090093598
1.1620408970632
1.16204088682849
1.16204086079901
1.16204079379919
1.16204090764516
1.16204092671947
1.16204093455746
1.16204093781622
1.16204093910566
1.16204093960661
1.1620409398022
1.16204093988071
1.16204093991331
1.1620409399271
1.1620409399329
1.16204093993527
1.16204093993618
1.16204093993651
1.16204093993662
1.16204093993667
1.16204093993671
1.16204093993676
1.16204093993681
1.16204093993688
1.16204093993696
1.16204093993704
1.16204093993712
1.16204093993721
1.1620409399373
1.1620409399374
1.16204093993749
1.16204093993759
1.16204093993769
1.16204093993779
1.16204093993789
1.162040939938
1.16204093993811
1.16204093993821
1.16204093993832
1.16204093993841
1.16204093993842
1.16204093993821
1.16204093993739
1.16204093993507
1.16204093992926
1.16204093991553
1.16204093988385
1.16204093981003
1.16204093963063
1.16204093917037
1.16204093794187
1.1620409346272
1.162040925992
1.16204090323082
1.16204092241021
1.16204092860045
1.16204093111362
1.16204093214297
1.16204093254482
1.16204093269902
1.16204093275848
1.16204093278206
1.16204093279174
1.1620409327958
1.16204093279749
1.16204093279817
1.16204093279844
1.16204093279855
1.1620409327986
1.16204093279865
1.1620409327987
1.16204093279876
1.16204093279883
1.16204093279891
1.16204093279899
1.16204093279908
1.16204093279916
1.16204093279925
1.16204093279934
1.16204093279943
1.16204093279952
1.16204093279961
1.1620409327997
1.16204093279979
1.16204093279988
1.16204093279997
1.16204093280006
1.16204093280015
1.16204093280024
1.16204093280033
1.16204093280041
1.16204093280042
1.16204093280025
1.16204093279965
1.16204093279801
1.162040932794
1.16204093278465
1.16204093276272
1.16204093270901
1.1620409325696
1.16204093219148
1.1620409311506
1.16204092837652
1.16204092090611
1.1620409088389
1.16204091078511
1.16204091156747
1.16204091188358
1.1620409120054
1.16204091205153
1.16204091206906
1.16204091207587
1.16204091207861
1.16204091207972
1.16204091208016
1.16204091208034
1.16204091208041
1.16204091208045
1.16204091208049
1.16204091208054
1.16204091208059
1.16204091208066
1.16204091208073
1.16204091208081
1.16204091208089
1.16204091208097
1.16204091208105
1.16204091208114
1.16204091208123
1.16204091208131
1.16204091208139
1.16204091208148
1.16204091208156
1.16204091208164
1.16204091208172
1.1620409120818
1.16204091208188
1.16204091208196
1.16204091208204
1.16204091208213
1.16204091208221
1.16204091208229
1.16204091208232
1.16204091208224
1.16204091208187
1.16204091208083
1.16204091207825
1.16204091207202
1.16204091205649
1.16204091201554
1.16204091190247
1.16204091158497
1.16204091072019
1.16204090834535
1.16204088629066
1.16204088688471
1.1620408871215
1.16204088721597
1.16204088725188
1.16204088726524
1.16204088727019
1.16204088727203
1.16204088727271
1.16204088727296
1.16204088727305
1.16204088727308
1.16204088727309
1.16204088727312
1.16204088727315
1.1620408872732
1.16204088727325
1.16204088727332
1.16204088727339
1.16204088727346
1.16204088727354
1.16204088727362
1.1620408872737
1.16204088727378
1.16204088727386
1.16204088727394
1.16204088727402
1.16204088727409
1.16204088727417
1.16204088727424
1.16204088727431
1.16204088727438
1.16204088727445
1.16204088727453
1.1620408872746
1.16204088727468
1.16204088727476
1.16204088727485
1.16204088727494
1.162040887275
1.162040887275
1.16204088727483
1.16204088727424
1.16204088727263
1.16204088726838
1.16204088725678
1.16204088722396
1.16204088712979
1.16204088686782
1.16204088613499
1.16204086098173
1.16204086115804
1.16204086122771
1.16204086125514
1.16204086126539
1.16204086126908
1.16204086127036
1.16204086127077
1.16204086127088
1.1620408612709
1.16204086127088
1.16204086127087
1.16204086127088
1.1620408612709
1.16204086127093
1.16204086127098
1.16204086127103
1.16204086127109
1.16204086127116
1.16204086127123
1.16204086127131
1.16204086127138
1.16204086127146
1.16204086127154
1.16204086127161
1.16204086127168
1.16204086127176
1.16204086127182
1.16204086127189
1.16204086127196
1.16204086127202
1.16204086127208
1.16204086127215
1.16204086127221
1.16204086127228
1.16204086127235
1.16204086127242
1.16204086127251
1.1620408612726
1.1620408612727
1.16204086127279
1.16204086127285
1.16204086127282
1.16204086127252
1.1620408612715
1.16204086126841
1.16204086125921
1.1620408612321
1.16204086115497
1.16204086093512
1.16204083484691
1.16204083489779
1.16204083491763
1.16204083492532
1.1620408349281
1.16204083492902
1.16204083492927
1.1620408349293
1.16204083492926
1.16204083492921
1.16204083492918
1.16204083492917
1.16204083492917
1.16204083492919
1.16204083492923
1.16204083492927
1.16204083492933
1.16204083492939
1.16204083492945
1.16204083492952
1.16204083492959
1.16204083492967
1.16204083492974
1.16204083492981
1.16204083492988
1.16204083492994
1.16204083493001
1.16204083493007
1.16204083493013
1.16204083493019
1.16204083493025
1.1620408349303
1.16204083493035
1.16204083493041
1.16204083493047
1.16204083493053
1.16204083493059
1.16204083493067
1.16204083493075
1.16204083493085
1.16204083493096
1.16204083493107
1.16204083493118
1.16204083493123
1.16204083493109
1.16204083493038
1.16204083492795
1.16204083492043
1.16204083489846
1.16204083483431
1.16204080847129
1.16204080848551
1.16204080849087
1.1620408084929
1.16204080849358
1.16204080849373
1.16204080849372
1.16204080849366
1.16204080849359
1.16204080849354
1.16204080849351
1.16204080849351
1.16204080849351
1.16204080849354
1.16204080849357
1.16204080849362
1.16204080849367
1.16204080849373
1.1620408084938
1.16204080849386
1.16204080849393
1.162040808494
1.16204080849406
1.16204080849413
1.16204080849419
1.16204080849425
1.16204080849431
1.16204080849437
1.16204080849442
1.16204080849447
1.16204080849452
1.16204080849456
1.16204080849461
1.16204080849465
1.1620408084947
1.16204080849475
1.16204080849481
1.16204080849487
1.16204080849494
1.16204080849503
1.16204080849513
1.16204080849524
1.16204080849536
1.16204080849549
1.16204080849557
1.16204080849549
1.16204080849494
1.16204080849299
1.16204080848704
1.16204080846891
1.16204078202715
1.16204078203092
1.16204078203219
1.16204078203264
1.16204078203275
1.16204078203272
1.16204078203266
1.16204078203259
1.16204078203253
1.16204078203249
1.16204078203247
1.16204078203247
1.16204078203249
1.16204078203252
1.16204078203255
1.1620407820326
1.16204078203265
1.16204078203271
1.16204078203277
1.16204078203284
1.1620407820329
1.16204078203296
1.16204078203302
1.16204078203308
1.16204078203314
1.1620407820332
1.16204078203325
1.1620407820333
1.16204078203334
1.16204078203338
1.16204078203342
1.16204078203346
1.1620407820335
1.16204078203353
1.16204078203357
1.16204078203361
1.16204078203365
1.1620407820337
1.16204078203376
1.16204078203383
1.16204078203392
1.16204078203401
1.16204078203412
1.16204078203424
1.16204078203435
1.16204078203443
1.16204078203436
1.16204078203394
1.16204078203253
1.16204078202766
1.16204075556395
1.16204075556481
1.16204075556496
1.162040755565
1.16204075556498
1.16204075556492
1.16204075556486
1.16204075556481
1.16204075556477
1.16204075556475
1.16204075556474
1.16204075556475
1.16204075556477
1.1620407555648
1.16204075556484
1.16204075556489
1.16204075556494
1.162040755565
1.16204075556506
1.16204075556512
1.16204075556518
1.16204075556524
1.1620407555653
1.16204075556535
1.1620407555654
1.16204075556545
1.1620407555655
1.16204075556554
1.16204075556557
1.16204075556561
1.16204075556564
1.16204075556567
1.1620407555657
1.16204075556572
1.16204075556575
1.16204075556578
1.16204075556581
1.16204075556585
1.16204075556589
1.16204075556594
1.16204075556601
1.16204075556608
1.16204075556617
1.16204075556627
1.16204075556636
1.16204075556645
1.16204075556649
1.16204075556647
1.1620407555663
1.16204075556515
1.16204072909556
1.16204072909564
1.1620407290955
1.16204072909544
1.16204072909541
1.16204072909537
1.16204072909533
1.1620407290953
1.16204072909528
1.16204072909527
1.16204072909528
1.1620407290953
1.16204072909533
1.16204072909536
1.16204072909541
1.16204072909546
1.16204072909551
1.16204072909557
1.16204072909562
1.16204072909568
1.16204072909574
1.16204072909579
1.16204072909584
1.16204072909589
1.16204072909594
1.16204072909598
1.16204072909602
1.16204072909605
1.16204072909608
1.16204072909611
1.16204072909613
1.16204072909615
1.16204072909617
1.16204072909619
1.1620407290962
1.16204072909622
1.16204072909624
1.16204072909626
1.16204072909629
1.16204072909632
1.16204072909637
1.16204072909642
1.16204072909648
1.16204072909655
1.16204072909663
1.16204072909669
1.16204072909674
1.1620407290968
1.16204072909696
1.16204072909682
1.16204070262579
1.16204070262567
1.16204070262547
1.16204070262541
1.16204070262539
1.16204070262538
1.16204070262536
1.16204070262536
1.16204070262536
1.16204070262536
1.16204070262538
1.16204070262541
1.16204070262545
1.16204070262549
1.16204070262554
1.16204070262559
1.16204070262564
1.1620407026257
1.16204070262575
1.16204070262581
1.16204070262586
1.16204070262591
1.16204070262596
1.162040702626
1.16204070262604
1.16204070262608
1.16204070262611
1.16204070262614
1.16204070262616
1.16204070262618
1.16204070262619
1.1620407026262
1.16204070262621
1.16204070262621
1.16204070262622
1.16204070262622
1.16204070262623
1.16204070262624
1.16204070262625
1.16204070262627
1.16204070262629
1.16204070262633
1.16204070262636
1.16204070262641
1.16204070262645
1.16204070262649
1.16204070262651
1.16204070262657
1.1620407026268
1.16204070262693
1.16204067615567
1.16204067615551
1.1620406761553
1.16204067615526
1.16204067615527
1.16204067615528
1.16204067615529
1.1620406761553
1.16204067615532
1.16204067615535
1.16204067615538
1.16204067615542
1.16204067615546
1.16204067615551
1.16204067615556
1.16204067615561
1.16204067615567
1.16204067615572
1.16204067615577
1.16204067615583
1.16204067615588
1.16204067615592
1.16204067615596
1.162040676156
1.16204067615604
1.16204067615607
1.16204067615609
1.16204067615611
1.16204067615613
1.16204067615614
1.16204067615614
1.16204067615614
1.16204067615614
1.16204067615614
1.16204067615613
1.16204067615612
1.16204067615612
1.16204067615611
1.16204067615611
1.16204067615611
1.16204067615611
1.16204067615612
1.16204067615613
1.16204067615615
1.16204067615616
1.16204067615617
1.16204067615617
1.16204067615621
1.16204067615644
1.16204067615663
1.16204064968545
1.16204064968529
1.1620406496851
1.16204064968508
1.16204064968512
1.16204064968515
1.16204064968519
1.16204064968522
1.16204064968526
1.1620406496853
1.16204064968535
1.16204064968539
1.16204064968544
1.1620406496855
1.16204064968555
1.16204064968561
1.16204064968566
1.16204064968572
1.16204064968577
1.16204064968582
1.16204064968587
1.16204064968591
1.16204064968595
1.16204064968598
1.16204064968601
1.16204064968603
1.16204064968605
1.16204064968606
1.16204064968607
1.16204064968607
1.16204064968607
1.16204064968606
1.16204064968605
1.16204064968603
1.16204064968602
1.162040649686
1.16204064968598
1.16204064968596
1.16204064968594
1.16204064968592
1.1620406496859
1.16204064968589
1.16204064968588
1.16204064968587
1.16204064968585
1.16204064968583
1.16204064968581
1.16204064968582
1.16204064968604
1.16204064968623
1.16204062321521
1.16204062321506
1.16204062321489
1.1620406232149
1.16204062321496
1.16204062321502
1.16204062321508
1.16204062321513
1.16204062321519
1.16204062321525
1.1620406232153
1.16204062321536
1.16204062321542
1.16204062321548
1.16204062321554
1.1620406232156
1.16204062321565
1.16204062321571
1.16204062321576
1.1620406232158
1.16204062321585
1.16204062321589
1.16204062321592
1.16204062321595
1.16204062321597
1.16204062321599
1.162040623216
1.162040623216
1.162040623216
1.162040623216
1.16204062321598
1.16204062321597
1.16204062321595
1.16204062321592
1.16204062321589
1.16204062321586
1.16204062321583
1.16204062321579
1.16204062321576
1.16204062321572
1.16204062321569
1.16204062321565
1.16204062321562
1.16204062321558
1.16204062321554
1.16204062321549
1.16204062321543
1.16204062321542
1.16204062321562
1.16204062321581
1.16204059674496
1.16204059674482
1.16204059674468
1.16204059674471
1.1620405967448
1.16204059674488
1.16204059674496
1.16204059674504
1.16204059674512
1.16204059674519
1.16204059674526
1.16204059674533
1.16204059674539
1.16204059674546
1.16204059674552
1.16204059674558
1.16204059674564
1.16204059674569
1.16204059674574
1.16204059674579
1.16204059674583
1.16204059674586
1.16204059674589
1.16204059674591
1.16204059674593
1.16204059674594
1.16204059674595
1.16204059674594
1.16204059674594
1.16204059674592
1.1620405967459
1.16204059674587
1.16204059674584
1.16204059674581
1.16204059674577
1.16204059674573
1.16204059674568
1.16204059674563
1.16204059674558
1.16204059674553
1.16204059674547
1.16204059674542
1.16204059674536
1.16204059674529
1.16204059674523
1.16204059674515
1.16204059674507
1.16204059674503
1.1620405967452
1.16204059674537
1.1620405702747
1.16204057027458
1.16204057027446
1.16204057027452
1.16204057027463
1.16204057027474
1.16204057027485
1.16204057027495
1.16204057027504
1.16204057027513
1.16204057027521
1.16204057027529
1.16204057027536
1.16204057027543
1.1620405702755
1.16204057027556
1.16204057027562
1.16204057027567
1.16204057027572
1.16204057027576
1.1620405702758
1.16204057027583
1.16204057027586
1.16204057027587
1.16204057027589
1.16204057027589
1.16204057027589
1.16204057027588
1.16204057027586
1.16204057027584
1.16204057027581
1.16204057027578
1.16204057027574
1.16204057027569
1.16204057027564
1.16204057027559
1.16204057027553
1.16204057027546
1.1620405702754
1.16204057027533
1.16204057027525
1.16204057027518
1.16204057027509
1.16204057027501
1.16204057027491
1.16204057027481
1.1620405702747
1.16204057027463
1.16204057027478
1.16204057027494
1.16204054380444
1.16204054380433
1.16204054380423
1.16204054380433
1.16204054380446
1.1620405438046
1.16204054380473
1.16204054380485
1.16204054380496
1.16204054380506
1.16204054380515
1.16204054380524
1.16204054380532
1.1620405438054
1.16204054380547
1.16204054380553
1.16204054380559
1.16204054380565
1.16204054380569
1.16204054380573
1.16204054380577
1.1620405438058
1.16204054380582
1.16204054380583
1.16204054380584
1.16204054380584
1.16204054380583
1.16204054380581
1.16204054380579
1.16204054380576
1.16204054380572
1.16204054380568
1.16204054380563
1.16204054380557
1.16204054380551
1.16204054380544
1.16204054380537
1.16204054380529
1.16204054380521
1.16204054380513
1.16204054380503
1.16204054380494
1.16204054380483
1.16204054380472
1.1620405438046
1.16204054380446
1.16204054380433
1.16204054380423
1.16204054380435
1.16204054380449
1.16204051733416
1.16204051733408
1.162040517334
1.16204051733413
1.16204051733429
1.16204051733445
1.1620405173346
1.16204051733474
1.16204051733487
1.16204051733498
1.16204051733509
1.16204051733519
1.16204051733528
1.16204051733536
1.16204051733543
1.1620405173355
1.16204051733556
1.16204051733561
1.16204051733566
1.1620405173357
1.16204051733573
1.16204051733576
1.16204051733577
1.16204051733578
1.16204051733578
1.16204051733578
1.16204051733576
1.16204051733574
1.16204051733571
1.16204051733567
1.16204051733563
1.16204051733557
1.16204051733552
1.16204051733545
1.16204051733538
1.1620405173353
1.16204051733521
1.16204051733512
1.16204051733503
1.16204051733492
1.16204051733481
1.16204051733469
1.16204051733457
1.16204051733443
1.16204051733429
1.16204051733412
1.16204051733396
1.16204051733382
1.16204051733392
1.16204051733405
1.16204049086387
1.1620404908638
1.16204049086376
1.16204049086392
1.16204049086411
1.1620404908643
1.16204049086447
1.16204049086463
1.16204049086477
1.1620404908649
1.16204049086502
1.16204049086513
1.16204049086522
1.16204049086531
1.16204049086539
1.16204049086546
1.16204049086552
1.16204049086557
1.16204049086562
1.16204049086566
1.16204049086569
1.16204049086571
1.16204049086572
1.16204049086573
1.16204049086572
1.16204049086571
1.16204049086569
1.16204049086566
1.16204049086562
1.16204049086558
1.16204049086553
1.16204049086546
1.1620404908654
1.16204049086532
1.16204049086524
1.16204049086515
1.16204049086505