/*--------------------------------*- C++ -*----------------------------------*\
  =========                 |
  \\      /  F ield         | OpenFOAM: The Open Source CFD Toolbox
   \\    /   O peration     | Website:  https://openfoam.org
    \\  /    A nd           | Version:  10
     \\/     M anipulation  |
\*---------------------------------------------------------------------------*/
FoamFile
{
    format      ascii;
    class       volScalarField;
    location    "5.2";
    object      T;
}
// * * * * * * * * * * * * * * * * * * * * * * * * * * * * * * * * * * * * * //

dimensions      [0 0 0 1 0 0 0];

internalField   nonuniform List<scalar> 
2500
(
304.745218541086
304.734186100332
304.71810102603
304.708005298315
304.702602879228
304.699868744872
304.698534808069
304.6979092576
304.697629256094
304.697510899538
304.697462046054
304.697442855142
304.697435524798
304.697432158081
304.697430330227
304.69742890251
304.697428185626
304.697427391965
304.697426522672
304.697425909438
304.697425379146
304.697424911415
304.697424521987
304.697424284303
304.697424038714
304.697423819036
304.697423734789
304.697423687768
304.697423696233
304.697423783424
304.697423941328
304.697424242233
304.697424628109
304.697425125749
304.697425726123
304.697426594363
304.697428152859
304.69743135864
304.697439854186
304.697460677963
304.697512430766
304.697637006127
304.697924174035
304.698555893999
304.699889764003
304.702604111224
304.70797891806
304.718109004332
304.734363952275
304.745086617701
303.596555240713
303.550581774373
303.50495194468
303.476273011416
303.460253502075
303.451732126413
303.447359520722
303.445209546879
303.444204670618
303.443760350742
303.443573902726
303.443499777113
303.443471758284
303.443461336055
303.443457381742
303.443455653968
303.443454918029
303.443454370309
303.443453843403
303.443453441816
303.443453077445
303.443452727924
303.443452425574
303.443452232373
303.443452063186
303.443451906309
303.443451831725
303.443451778315
303.443451732664
303.443451760178
303.443451833103
303.443451969406
303.443452294205
303.443452796774
303.443453529506
303.443455177263
303.44345955646
303.443471346474
303.443502946807
303.443583688292
303.443781574308
303.444243590645
303.445268690467
303.44743121863
303.451788832688
303.46024808625
303.47620324845
303.505028937482
303.551259535643
303.596311236758
302.488345113671
302.417762044195
302.357079426253
302.319870557577
302.299225231644
302.288271270382
302.282651197636
302.279882426479
302.27858368296
302.278006491999
302.277763452789
302.277666538284
302.277629903497
302.277616594998
302.277611869827
302.277610148707
302.277609530213
302.277609201401
302.277608932094
302.277608719593
302.277608509062
302.277608281698
302.277608071634
302.277607936493
302.277607834635
302.277607736517
302.277607686004
302.277607641965
302.277607582824
302.277607569675
302.27760756441
302.27760757951
302.27760783985
302.277608302136
302.27760900687
302.277610871307
302.277616269495
302.277631345298
302.277671969713
302.277776335528
302.278032123855
302.278628352865
302.279948591291
302.282729594622
302.288331148058
302.299222026298
302.319834540202
302.357348153931
302.419087128059
302.489458133888
301.576796568356
301.501884250599
301.445159383379
301.411685780258
301.393743630166
301.384526858005
301.379927051657
301.37770972031
301.376686636146
301.376237483995
301.376050164994
301.375976045069
301.375948243283
301.375938278995
301.375934841617
301.375933689307
301.375933331512
301.375933186429
301.375933083853
301.375932999089
301.375932899946
301.375932771341
301.375932639285
301.375932553658
301.37593250002
301.375932447328
301.375932419329
301.375932390534
301.375932342474
301.375932321077
301.375932295514
301.375932240284
301.375932392449
301.375932707296
301.375933146785
301.375934414411
301.375938265317
301.375949292215
301.375979449185
301.376058004134
301.376253078608
301.376714194343
301.377751596648
301.379978725931
301.384571024196
301.393760804468
301.411740079573
301.445629931264
301.503642992896
301.579523964078
300.919821030427
300.856373443911
300.812904420452
300.788223161811
300.775451234235
300.769101674191
300.766018480288
300.764562412
300.763900063112
300.763611962057
300.763492508221
300.763445416878
300.763427815888
300.763421550757
300.763419431309
300.763418771987
300.763418605877
300.763418564547
300.763418544405
300.763418525847
300.763418493353
300.763418433194
300.763418358562
300.763418309606
300.763418286945
300.763418265068
300.763418252716
300.763418236938
300.763418206617
300.763418187189
300.763418156731
300.763418086118
300.763418160258
300.763418332312
300.763418556382
300.763419291223
300.763421603704
300.763428336992
300.763446966186
300.763495968907
300.763618816775
300.763912336733
300.764581417585
300.766042413225
300.769123199171
300.775468225059
300.788309112539
300.813406067379
300.858142111728
300.923348235754
300.496872394747
300.451265738695
300.422523496953
300.406790924313
300.398916365842
300.395120896467
300.393324890393
300.392492435316
300.392118274041
300.391956611231
300.39188978036
300.391863456176
300.391853624802
300.391850137764
300.391848978215
300.391848645882
300.391848588117
300.391848591558
300.391848597158
300.391848599226
300.391848598063
300.391848578651
300.391848540657
300.39184851573
300.39184850999
300.391848504729
300.391848500642
300.391848493137
300.391848477206
300.391848463015
300.391848437344
300.391848379649
300.391848407895
300.391848483297
300.391848576278
300.391848959137
300.391850196682
300.391853834118
300.391863990894
300.391890884216
300.391958728686
300.392122070953
300.392498267728
300.393331784521
300.395125842884
300.398922819232
300.406859668252
300.422923734334
300.452711424532
300.500229503323
300.250043385481
300.22124023229
300.204347491521
300.195412557829
300.191075956252
300.189044859758
300.188106614706
300.187679116779
300.187488922914
300.187407133166
300.187373351085
300.187360028828
300.187355048121
300.187353285456
300.18735270985
300.187352562577
300.187352550991
300.187352562791
300.187352575512
300.187352580525
300.187352585183
300.187352583579
300.187352566501
300.187352555791
300.187352557512
300.187352557619
300.18735255636
300.187352554031
300.187352546617
300.187352537602
300.187352519951
300.187352481951
300.187352488625
300.187352512181
300.187352541615
300.187352727745
300.187353334624
300.187355123515
300.187360156964
300.187373538755
300.18740741605
300.187489378537
300.18767961623
300.18810634371
300.189042078626
300.191073458904
300.195450459061
300.204607681286
300.222244668786
300.252656182443
300.117907242091
300.101558730158
300.092554213382
300.087941595558
300.085765210048
300.084772418005
300.084323981595
300.084122866629
300.084034181424
300.083996167715
300.08398045685
300.083974245162
300.083971917741
300.083971095569
300.083970833811
300.083970774445
300.083970775381
300.083970786199
300.083970796822
300.083970802586
300.083970806005
300.083970806905
300.083970801421
300.083970798318
300.083970801559
300.083970803104
300.083970802788
300.083970801691
300.083970798457
300.083970793312
300.083970782877
300.083970762329
300.083970760485
300.083970762937
300.083970770275
300.083970854764
300.083971130528
300.08397194599
300.083974255075
300.083980405747
300.083995994306
300.084033802005
300.084122035346
300.084322002579
300.084767929484
300.08575910437
300.087956059247
300.092698252672
300.102170202126
300.119657620322
300.052381589047
300.043906080338
300.039488053748
300.037291705709
300.036281929173
300.035832328132
300.03563345599
300.035545576567
300.035507129883
300.035490686503
300.035483879177
300.035481178306
300.03548016342
300.035479805616
300.035479694828
300.035479672843
300.035479675971
300.03547968311
300.035479689839
300.035479693976
300.035479695943
300.035479696688
300.035479695792
300.035479695978
300.03547969815
300.035479699503
300.03547969936
300.035479698772
300.035479697446
300.035479694717
300.035479689247
300.035479679555
300.035479677422
300.035479676846
300.035479677196
300.035479710733
300.035479827477
300.035480176359
300.035481169342
300.035483814686
300.035490512939
300.035506763599
300.035544817732
300.035631793297
300.035828709885
300.036276078453
300.037294172357
300.039557684457
300.044239395057
300.053422252489
300.022033814694
300.017971079069
300.015952932172
300.014977465066
300.014539580994
300.014348904836
300.014266199303
300.014230160391
300.014214507165
300.014207822299
300.014205048327
300.014203943262
300.01420352668
300.014203380162
300.014203336264
300.014203328805
300.01420333104
300.014203334989
300.014203338646
300.014203341065
300.01420334238
300.014203343048
300.014203343147
300.014203343687
300.014203344852
300.014203345616
300.01420334558
300.014203345311
300.014203344712
300.01420334337
300.01420334075
300.014203336433
300.014203334889
300.014203333986
300.014203333225
300.01420334572
300.014203392302
300.014203533779
300.014203937819
300.014205012707
300.01420772714
300.0142143023
300.014229723283
300.014265207729
300.014346645047
300.0145354406
300.014975799383
300.015982721745
300.018136411478
300.022594243501
300.008815141115
300.006997034981
300.006130965439
300.005723267078
300.00554425535
300.005467884516
300.005435360795
300.005421376033
300.005415342795
300.00541276886
300.005411697816
300.005411269297
300.005411107222
300.005411050385
300.00541103389
300.005411031562
300.005411032844
300.00541103479
300.005411036575
300.00541103782
300.005411038577
300.005411039005
300.005411039225
300.005411039613
300.005411040162
300.00541104052
300.005411040514
300.005411040394
300.005411040124
300.005411039502
300.005411038335
300.005411036502
300.005411035617
300.005411034999
300.005411034443
300.005411038819
300.005411056478
300.005411111247
300.005411267927
300.005411683645
300.005412729153
300.005415253616
300.005421173713
300.005434866655
300.005466674184
300.005541802602
300.005721120983
300.006142280582
300.007072588003
300.009092579811
300.003367887324
300.002602378474
300.002250666134
300.002089153084
300.002019678442
300.001990592568
300.001978416582
300.001973247206
300.001971031379
300.00197008676
300.00196969253
300.001969534106
300.001969473995
300.001969452983
300.001969447069
300.001969446413
300.00196944705
300.001969447928
300.001969448729
300.001969449311
300.001969449693
300.001969449926
300.001969450077
300.001969450283
300.001969450519
300.00196945067
300.001969450668
300.001969450617
300.001969450499
300.001969450226
300.001969449738
300.001969448996
300.001969448559
300.001969448227
300.001969447951
300.001969449396
300.001969455796
300.001969476149
300.001969534382
300.001969688327
300.001970073464
300.001970999199
300.001973166704
300.001978198491
300.001990011616
300.002018396559
300.002087625531
300.002254442692
300.002634495933
300.003495563525
300.001233258567
300.000928045543
300.000792077846
300.000731069427
300.000705324302
300.000694731745
300.000690367871
300.000688537506
300.000687757787
300.000687425598
300.000687286546
300.000687230425
300.000687209066
300.000687201629
300.000687199613
300.000687199448
300.000687199715
300.000687200082
300.000687200417
300.000687200668
300.000687200842
300.000687200954
300.000687201033
300.000687201127
300.000687201221
300.00068720128
300.000687201279
300.000687201257
300.000687201208
300.000687201095
300.000687200902
300.000687200616
300.000687200422
300.000687200266
300.000687200142
300.000687200593
300.000687202833
300.000687210125
300.000687230964
300.00068728581
300.00068742219
300.000687748167
300.000688509223
300.000690279999
300.000694475499
300.000704715805
300.00073020248
300.000793143573
300.000940844613
300.001288361243
300.000434245673
300.000318389741
300.000268106625
300.000246025632
300.000236872431
300.000233166312
300.000231662012
300.00023103829
300.000230774184
300.000230661733
300.000230614524
300.000230595392
300.000230588088
300.000230585555
300.00023058489
300.000230584853
300.000230584961
300.000230585105
300.000230585236
300.000230585337
300.00023058541
300.000230585458
300.000230585494
300.000230585532
300.000230585568
300.000230585589
300.000230585588
300.000230585579
300.00023058556
300.000230585516
300.000230585443
300.000230585338
300.000230585259
300.000230585192
300.000230585144
300.00023058528
300.000230586038
300.000230588565
300.000230595772
300.000230614643
300.00023066126
300.000230771971
300.000231029431
300.000231629041
300.000233060707
300.000236605129
300.000245596049
300.000268328817
300.000323201107
300.000456707513
300.000147459487
300.000105398133
300.000087536783
300.000079847686
300.000076712872
300.000075462186
300.000074961462
300.000074756097
300.000074669643
300.000074632855
300.000074617368
300.000074611066
300.000074608652
300.000074607818
300.000074607604
300.000074607596
300.000074607637
300.000074607689
300.000074607737
300.000074607775
300.000074607802
300.000074607821
300.000074607836
300.00007460785
300.000074607863
300.00007460787
300.000074607869
300.000074607866
300.000074607858
300.000074607842
300.000074607817
300.00007460778
300.00007460775
300.000074607724
300.000074607706
300.000074607747
300.000074607998
300.000074608849
300.000074611265
300.000074617557
300.00007463299
300.000074669389
300.000074753626
300.000074949761
300.000075421025
300.000076602775
300.000079654397
300.000087546174
300.000107112916
300.000156158651
300.000048418218
300.000033755878
300.000027640888
300.000025055918
300.000024018175
300.000023609731
300.000023448256
300.0000233827
300.000023355256
300.000023343584
300.000023338657
300.000023336644
300.000023335869
300.000023335601
300.000023335532
300.00002333553
300.000023335543
300.00002333556
300.000023335576
300.000023335589
300.000023335598
300.000023335605
300.00002333561
300.000023335615
300.000023335618
300.000023335621
300.00002333562
300.000023335619
300.000023335617
300.000023335611
300.000023335603
300.000023335591
300.000023335581
300.000023335572
300.000023335566
300.000023335579
300.000023335663
300.000023335942
300.00002333673
300.000023338768
300.000023343732
300.000023355352
300.000023382093
300.000023444273
300.000023594416
300.000023975239
300.000024975218
300.000027617644
300.0000343377
300.000051634899
300.000015409063
300.000010484654
300.000008461056
300.000007619621
300.000007286607
300.000007157159
300.000007106566
300.000007086218
300.000007077744
300.000007074141
300.000007072615
300.000007071988
300.000007071744
300.000007071659
300.000007071635
300.000007071633
300.000007071636
300.000007071641
300.000007071645
300.000007071648
300.00000707165
300.000007071652
300.000007071653
300.000007071654
300.000007071655
300.000007071656
300.000007071656
300.000007071655
300.000007071655
300.000007071653
300.000007071651
300.000007071648
300.000007071645
300.000007071643
300.000007071642
300.000007071647
300.000007071676
300.000007071766
300.000007072018
300.000007072662
300.000007074218
300.000007077829
300.000007086089
300.000007105248
300.000007151677
300.000007270634
300.000007587925
300.000008443802
300.000010673216
300.000016549457
300.000004763422
300.000003165259
300.00000251637
300.000002250518
300.000002146669
300.000002106758
300.000002091319
300.000002085161
300.000002082608
300.000002081521
300.000002081058
300.000002080865
300.000002080789
300.00000208076
300.000002080751
300.000002080748
300.000002080747
300.000002080747
300.000002080747
300.000002080747
300.000002080747
300.000002080747
300.000002080747
300.000002080747
300.000002080747
300.000002080746
300.000002080746
300.000002080746
300.000002080746
300.000002080746
300.000002080746
300.000002080746
300.000002080746
300.000002080746
300.000002080747
300.00000208075
300.000002080761
300.000002080791
300.000002080871
300.000002081072
300.000002081549
300.000002082646
300.000002085135
300.000002090887
300.000002104857
300.000002140965
300.000002238696
300.000002507531
300.000003223785
300.000005152448
300.000001433291
300.000000930808
300.000000728768
300.000000647069
300.000000615532
300.000000603534
300.000000598934
300.000000597112
300.000000596357
300.000000596034
300.000000595895
300.000000595834
300.000000595809
300.000000595798
300.000000595793
300.00000059579
300.000000595788
300.000000595786
300.000000595785
300.000000595783
300.000000595782
300.000000595782
300.000000595781
300.00000059578
300.00000059578
300.00000059578
300.000000595779
300.00000059578
300.00000059578
300.00000059578
300.000000595781
300.000000595781
300.000000595782
300.000000595783
300.000000595785
300.000000595788
300.000000595793
300.000000595804
300.000000595831
300.000000595894
300.000000596039
300.000000596367
300.000000597102
300.000000598789
300.000000602889
300.000000613564
300.000000642851
300.000000724917
300.000000948237
300.000001561386
300.000000420717
300.000000267323
300.000000206144
300.000000181683
300.000000172338
300.000000168813
300.000000167471
300.00000016694
300.000000166719
300.000000166623
300.000000166579
300.000000166558
300.000000166548
300.000000166542
300.000000166538
300.000000166535
300.000000166532
300.00000016653
300.000000166528
300.000000166527
300.000000166525
300.000000166524
300.000000166523
300.000000166523
300.000000166522
300.000000166522
300.000000166522
300.000000166522
300.000000166522
300.000000166523
300.000000166523
300.000000166524
300.000000166526
300.000000166527
300.000000166529
300.000000166532
300.000000166535
300.000000166541
300.000000166551
300.000000166572
300.000000166618
300.000000166716
300.000000166931
300.000000167418
300.000000168596
300.000000171677
300.000000180234
300.000000204623
300.000000272308
300.000000461536
300.00000012087
300.000000075331
300.000000057305
300.000000050163
300.000000047455
300.00000004644
300.000000046054
300.0000000459
300.000000045833
300.000000045802
300.000000045786
300.000000045777
300.000000045771
300.000000045766
300.000000045763
300.00000004576
300.000000045757
300.000000045755
300.000000045753
300.000000045751
300.000000045749
300.000000045748
300.000000045747
300.000000045746
300.000000045746
300.000000045746
300.000000045745
300.000000045746
300.000000045746
300.000000045746
300.000000045747
300.000000045748
300.00000004575
300.000000045751
300.000000045753
300.000000045756
300.000000045759
300.000000045763
300.000000045768
300.000000045777
300.000000045794
300.000000045825
300.000000045889
300.000000046029
300.000000046363
300.000000047236
300.000000049679
300.000000056744
300.000000076699
300.000000133486
300.000000034248
300.000000021096
300.000000015942
300.00000001391
300.000000013141
300.000000012852
300.000000012741
300.000000012694
300.000000012671
300.000000012658
300.00000001265
300.000000012644
300.00000001264
300.000000012636
300.000000012632
300.000000012629
300.000000012626
300.000000012624
300.000000012622
300.00000001262
300.000000012619
300.000000012617
300.000000012616
300.000000012616
300.000000012615
300.000000012615
300.000000012615
300.000000012615
300.000000012615
300.000000012616
300.000000012616
300.000000012618
300.000000012619
300.000000012621
300.000000012623
300.000000012625
300.000000012628
300.000000012632
300.000000012636
300.000000012641
300.000000012649
300.000000012661
300.000000012683
300.000000012725
300.000000012821
300.000000013066
300.000000013751
300.000000015745
300.000000021453
300.000000038035
300.000000009797
300.000000006116
300.000000004708
300.000000004149
300.000000003933
300.00000000385
300.000000003816
300.000000003799
300.000000003788
300.000000003781
300.000000003775
300.00000000377
300.000000003766
300.000000003762
300.000000003758
300.000000003755
300.000000003752
300.00000000375
300.000000003748
300.000000003746
300.000000003745
300.000000003743
300.000000003742
300.000000003741
300.000000003741
300.000000003741
300.00000000374
300.000000003741
300.000000003741
300.000000003741
300.000000003742
300.000000003743
300.000000003745
300.000000003747
300.000000003749
300.000000003751
300.000000003754
300.000000003757
300.000000003761
300.000000003766
300.000000003771
300.000000003778
300.000000003787
300.000000003803
300.000000003833
300.000000003903
300.000000004095
300.00000000464
300.000000006203
300.0000000109
300.000000003044
300.000000002065
300.000000001721
300.000000001577
300.000000001517
300.000000001491
300.000000001477
300.000000001469
300.000000001462
300.000000001456
300.000000001451
300.000000001446
300.000000001441
300.000000001438
300.000000001434
300.000000001431
300.000000001428
300.000000001426
300.000000001424
300.000000001422
300.00000000142
300.000000001419
300.000000001418
300.000000001417
300.000000001417
300.000000001416
300.000000001416
300.000000001416
300.000000001417
300.000000001418
300.000000001418
300.000000001419
300.000000001421
300.000000001423
300.000000001425
300.000000001427
300.00000000143
300.000000001433
300.000000001437
300.000000001441
300.000000001446
300.000000001451
300.000000001458
300.000000001466
300.000000001478
300.000000001501
300.000000001556
300.000000001698
300.000000002082
300.000000003353
300.000000001217
300.000000000992
300.000000000943
300.000000000914
300.000000000896
300.000000000885
300.000000000878
300.000000000871
300.000000000865
300.00000000086
300.000000000855
300.00000000085
300.000000000846
300.000000000842
300.000000000838
300.000000000835
300.000000000833
300.00000000083
300.000000000828
300.000000000826
300.000000000825
300.000000000823
300.000000000822
300.000000000822
300.000000000821
300.000000000821
300.000000000821
300.000000000821
300.000000000821
300.000000000822
300.000000000823
300.000000000824
300.000000000825
300.000000000827
300.000000000829
300.000000000832
300.000000000834
300.000000000838
300.000000000841
300.000000000845
300.00000000085
300.000000000855
300.00000000086
300.000000000866
300.000000000874
300.000000000884
300.000000000903
300.000000000934
300.000000000991
300.000000001297
300.000000000733
300.000000000713
300.000000000745
300.000000000746
300.000000000739
300.000000000733
300.000000000727
300.000000000721
300.000000000715
300.00000000071
300.000000000705
300.0000000007
300.000000000696
300.000000000692
300.000000000689
300.000000000686
300.000000000683
300.00000000068
300.000000000678
300.000000000677
300.000000000675
300.000000000674
300.000000000673
300.000000000672
300.000000000671
300.000000000671
300.000000000671
300.000000000671
300.000000000671
300.000000000672
300.000000000673
300.000000000674
300.000000000676
300.000000000677
300.000000000679
300.000000000682
300.000000000685
300.000000000688
300.000000000692
300.000000000696
300.0000000007
300.000000000705
300.00000000071
300.000000000716
300.000000000722
300.000000000729
300.000000000739
300.00000000074
300.000000000708
300.000000000749
300.000000000607
300.000000000642
300.000000000696
300.000000000705
300.000000000701
300.000000000696
300.00000000069
300.000000000684
300.000000000678
300.000000000673
300.000000000668
300.000000000663
300.000000000659
300.000000000655
300.000000000652
300.000000000649
300.000000000646
300.000000000643
300.000000000641
300.00000000064
300.000000000638
300.000000000637
300.000000000636
300.000000000635
300.000000000634
300.000000000634
300.000000000634
300.000000000634
300.000000000635
300.000000000635
300.000000000636
300.000000000637
300.000000000639
300.00000000064
300.000000000643
300.000000000645
300.000000000648
300.000000000651
300.000000000655
300.000000000659
300.000000000663
300.000000000668
300.000000000673
300.000000000679
300.000000000685
300.000000000691
300.000000000698
300.000000000692
300.000000000637
300.000000000605
300.000000000576
300.000000000625
300.000000000684
300.000000000695
300.000000000692
300.000000000686
300.000000000681
300.000000000675
300.000000000669
300.000000000664
300.000000000659
300.000000000654
300.00000000065
300.000000000646
300.000000000642
300.000000000639
300.000000000637
300.000000000634
300.000000000632
300.00000000063
300.000000000629
300.000000000628
300.000000000627
300.000000000626
300.000000000625
300.000000000625
300.000000000625
300.000000000625
300.000000000626
300.000000000626
300.000000000627
300.000000000628
300.00000000063
300.000000000631
300.000000000633
300.000000000636
300.000000000639
300.000000000642
300.000000000646
300.00000000065
300.000000000654
300.000000000659
300.000000000664
300.00000000067
300.000000000676
300.000000000682
300.000000000689
300.000000000681
300.00000000062
300.000000000569
300.000000000569
300.000000000622
300.000000000682
300.000000000693
300.00000000069
300.000000000684
300.000000000678
300.000000000672
300.000000000666
300.000000000661
300.000000000656
300.000000000651
300.000000000647
300.000000000643
300.00000000064
300.000000000637
300.000000000634
300.000000000632
300.00000000063
300.000000000628
300.000000000627
300.000000000625
300.000000000624
300.000000000624
300.000000000623
300.000000000623
300.000000000623
300.000000000623
300.000000000623
300.000000000624
300.000000000625
300.000000000626
300.000000000627
300.000000000629
300.000000000631
300.000000000633
300.000000000636
300.000000000639
300.000000000643
300.000000000647
300.000000000652
300.000000000657
300.000000000662
300.000000000668
300.000000000674
300.00000000068
300.000000000687
300.000000000679
300.000000000617
300.000000000561
300.000000000569
300.000000000623
300.000000000683
300.000000000693
300.000000000689
300.000000000684
300.000000000677
300.000000000671
300.000000000665
300.00000000066
300.000000000655
300.00000000065
300.000000000646
300.000000000642
300.000000000639
300.000000000636
300.000000000633
300.000000000631
300.000000000629
300.000000000627
300.000000000626
300.000000000624
300.000000000623
300.000000000623
300.000000000622
300.000000000622
300.000000000622
300.000000000622
300.000000000622
300.000000000623
300.000000000624
300.000000000625
300.000000000626
300.000000000628
300.00000000063
300.000000000632
300.000000000635
300.000000000638
300.000000000642
300.000000000646
300.000000000651
300.000000000656
300.000000000661
300.000000000667
300.000000000673
300.00000000068
300.000000000688
300.00000000068
300.000000000618
300.000000000561
300.00000000057
300.000000000625
300.000000000684
300.000000000694
300.000000000689
300.000000000683
300.000000000677
300.00000000067
300.000000000664
300.000000000659
300.000000000654
300.000000000649
300.000000000645
300.000000000641
300.000000000638
300.000000000635
300.000000000632
300.00000000063
300.000000000628
300.000000000626
300.000000000625
300.000000000624
300.000000000623
300.000000000622
300.000000000622
300.000000000621
300.000000000621
300.000000000621
300.000000000622
300.000000000622
300.000000000623
300.000000000624
300.000000000626
300.000000000627
300.000000000629
300.000000000632
300.000000000634
300.000000000638
300.000000000641
300.000000000645
300.00000000065
300.000000000655
300.000000000661
300.000000000667
300.000000000673
300.000000000681
300.000000000689
300.000000000682
300.00000000062
300.000000000563
300.000000000573
300.000000000628
300.000000000686
300.000000000695
300.00000000069
300.000000000683
300.000000000676
300.00000000067
300.000000000663
300.000000000658
300.000000000652
300.000000000648
300.000000000644
300.00000000064
300.000000000637
300.000000000634
300.000000000631
300.000000000629
300.000000000627
300.000000000625
300.000000000624
300.000000000623
300.000000000622
300.000000000621
300.000000000621
300.000000000621
300.00000000062
300.000000000621
300.000000000621
300.000000000622
300.000000000622
300.000000000623
300.000000000625
300.000000000626
300.000000000628
300.000000000631
300.000000000633
300.000000000637
300.00000000064
300.000000000644
300.000000000649
300.000000000654
300.00000000066
300.000000000666
300.000000000673
300.000000000681
300.00000000069
300.000000000684
300.000000000623
300.000000000566
300.000000000576
300.000000000631
300.000000000688
300.000000000696
300.00000000069
300.000000000683
300.000000000675
300.000000000668
300.000000000662
300.000000000656
300.000000000651
300.000000000646
300.000000000642
300.000000000639
300.000000000635
300.000000000633
300.00000000063
300.000000000628
300.000000000626
300.000000000624
300.000000000623
300.000000000622
300.000000000621
300.00000000062
300.00000000062
300.00000000062
300.00000000062
300.00000000062
300.00000000062
300.000000000621
300.000000000622
300.000000000623
300.000000000624
300.000000000626
300.000000000627
300.00000000063
300.000000000632
300.000000000636
300.000000000639
300.000000000643
300.000000000648
300.000000000653
300.000000000659
300.000000000666
300.000000000673
300.000000000682
300.000000000691
300.000000000686
300.000000000627
300.000000000569
300.00000000058
300.000000000635
300.00000000069
300.000000000697
300.00000000069
300.000000000682
300.000000000674
300.000000000667
300.000000000661
300.000000000655
300.000000000649
300.000000000645
300.000000000641
300.000000000637
300.000000000634
300.000000000631
300.000000000629
300.000000000627
300.000000000625
300.000000000623
300.000000000622
300.000000000621
300.00000000062
300.00000000062
300.000000000619
300.000000000619
300.000000000619
300.000000000619
300.000000000619
300.00000000062
300.000000000621
300.000000000622
300.000000000623
300.000000000624
300.000000000626
300.000000000629
300.000000000631
300.000000000634
300.000000000638
300.000000000642
300.000000000647
300.000000000652
300.000000000658
300.000000000665
300.000000000673
300.000000000682
300.000000000693
300.000000000689
300.000000000631
300.000000000574
300.000000000585
300.000000000639
300.000000000693
300.000000000698
300.00000000069
300.000000000681
300.000000000673
300.000000000666
300.000000000659
300.000000000653
300.000000000648
300.000000000643
300.000000000639
300.000000000635
300.000000000632
300.00000000063
300.000000000627
300.000000000625
300.000000000624
300.000000000622
300.000000000621
300.00000000062
300.000000000619
300.000000000618
300.000000000618
300.000000000618
300.000000000618
300.000000000618
300.000000000618
300.000000000619
300.000000000619
300.000000000621
300.000000000622
300.000000000623
300.000000000625
300.000000000627