/*--------------------------------*- C++ -*----------------------------------*\
  =========                 |
  \\      /  F ield         | OpenFOAM: The Open Source CFD Toolbox
   \\    /   O peration     | Website:  https://openfoam.org
    \\  /    A nd           | Version:  10
     \\/     M anipulation  |
\*---------------------------------------------------------------------------*/
FoamFile
{
    format      ascii;
    class       volVectorField;
    location    "5.2";
    object      U;
}
// * * * * * * * * * * * * * * * * * * * * * * * * * * * * * * * * * * * * * //

dimensions      [0 1 -1 0 0 0 0];

internalField   nonuniform List<vector> 
2500
(
(-1.57788616547523e-06 -4.12253380637335e-06 7.95851885489501e-25)
(-3.72090292863908e-06 -5.38261162023189e-06 4.72801268914865e-24)
(-3.30679177819219e-06 -5.68990322563019e-06 1.05149478148476e-24)
(-2.46712941714915e-06 -5.77773981042862e-06 5.98856526191801e-25)
(-1.59882765334677e-06 -5.75268450551131e-06 1.05798770867925e-24)
(-1.02481408993818e-06 -5.71245239257491e-06 -2.51459609909736e-25)
(-6.49679664018125e-07 -5.67715169197573e-06 1.06557139727786e-25)
(-4.18631964758929e-07 -5.65283850490426e-06 9.13724397644204e-26)
(-2.74303406571331e-07 -5.63773976903079e-06 -4.17048800239504e-26)
(-1.81250565211185e-07 -5.62894100338442e-06 6.59155661105989e-24)
(-1.19328036394609e-07 -5.62416781525102e-06 2.79949192101186e-24)
(-7.60828234782261e-08 -5.62164989111928e-06 8.08691251555377e-24)
(-4.45863136273912e-08 -5.620335563763e-06 6.90500133651522e-24)
(-2.07727872550046e-08 -5.61964874909889e-06 2.22860662552482e-24)
(-2.20329972654163e-09 -5.61927790036109e-06 7.33210371836806e-24)
(1.25993981644388e-08 -5.61906764049252e-06 1.82783690556829e-24)
(2.45787179310344e-08 -5.61895224187843e-06 7.69394471585347e-24)
(3.43702495611113e-08 -5.61888230304947e-06 7.39540785485285e-24)
(4.24313406552695e-08 -5.61885326391923e-06 1.82555949345299e-24)
(4.90900083257154e-08 -5.61884405499076e-06 6.3119115693703e-24)
(5.46067158510146e-08 -5.61885451180795e-06 8.61316210090202e-25)
(5.9191092562282e-08 -5.6188730993883e-06 6.4589996708191e-26)
(6.30241214827481e-08 -5.61889824777255e-06 6.707725932804e-24)
(6.62608878571689e-08 -5.61893240404837e-06 8.53942496657203e-25)
(6.90327914999905e-08 -5.61897043948683e-06 2.30273201029794e-25)
(7.14763769577908e-08 -5.6190098478919e-06 5.72026832906764e-24)
(7.37243073196736e-08 -5.61905427179102e-06 3.96431271212691e-25)
(7.59017252307927e-08 -5.61910192360415e-06 1.23066096554987e-24)
(7.8151145592924e-08 -5.61915201291116e-06 6.18725742783478e-24)
(8.06259482285568e-08 -5.61920710351938e-06 -1.99531222567102e-25)
(8.34956782107102e-08 -5.61926595762974e-06 3.93231412592056e-25)
(8.69760013403852e-08 -5.61934116769145e-06 -1.02057689954074e-24)
(9.13186347412576e-08 -5.61943259303656e-06 8.37504833654822e-25)
(9.68486828037199e-08 -5.61954821473047e-06 9.3687271006014e-25)
(1.04029287757818e-07 -5.61971203401986e-06 -7.44785136715538e-26)
(1.13510850181876e-07 -5.61996877675226e-06 5.81635089970615e-24)
(1.26257090017486e-07 -5.62038657118151e-06 -6.81264029244708e-24)
(1.43764567393708e-07 -5.62113005344374e-06 -8.20488215098428e-25)
(1.68487854351429e-07 -5.62250637041456e-06 1.09350901858537e-26)
(2.04527078405565e-07 -5.62510961190516e-06 -4.00688522417178e-24)
(2.58791935537629e-07 -5.62995546387315e-06 -8.36572863185061e-24)
(3.43802067408771e-07 -5.63875436116176e-06 -8.1576096780584e-24)
(4.79511642610935e-07 -5.65370513363079e-06 -4.36706452853941e-24)
(7.01711049191183e-07 -5.67772833457176e-06 -8.39197503286326e-24)
(1.06798236431415e-06 -5.71275632782902e-06 -8.44440251122106e-24)
(1.63635622272543e-06 -5.75354390606214e-06 -5.00018132633408e-24)
(2.50745000270141e-06 -5.78050209190726e-06 -8.7520331761333e-24)
(3.36723120919666e-06 -5.69271788223034e-06 -8.30655422658616e-24)
(3.78682179716482e-06 -5.37336482440382e-06 -4.22031304525245e-24)
(1.59980676764118e-06 -4.10912496771948e-06 -6.43601499076068e-24)
(-1.60924382508662e-06 -5.40879663374523e-06 7.02027556573446e-25)
(-5.96968911979428e-06 -8.01691615504493e-06 9.8440754518183e-25)
(-5.63076541299661e-06 -9.38506139197872e-06 1.20761476613904e-24)
(-4.42077200519363e-06 -9.68023324516656e-06 9.76799581138915e-25)
(-3.01720431267363e-06 -9.50476347004108e-06 1.06545730925402e-24)
(-2.03721434092265e-06 -9.25276281031126e-06 -2.47122040589648e-24)
(-1.37206001375098e-06 -9.05763629712922e-06 -6.81952057725563e-26)
(-9.43805813415323e-07 -8.92867316201327e-06 -1.64032619427827e-25)
(-6.63947147682017e-07 -8.85016259046868e-06 -2.59417758615763e-24)
(-4.73916900462256e-07 -8.80379055920708e-06 1.10925076726714e-24)
(-3.40079120145853e-07 -8.77679629702481e-06 5.90702816815175e-24)
(-2.41393846194733e-07 -8.76088190583861e-06 5.99185692452911e-24)
(-1.65873080235808e-07 -8.75117769675963e-06 1.95795932689508e-24)
(-1.06309987602018e-07 -8.74497099115688e-06 3.73869064600167e-24)
(-5.81881469301409e-08 -8.74076953443803e-06 1.94288452636001e-24)
(-1.86443096256648e-08 -8.73777286833287e-06 1.98138107208724e-24)
(1.42627341971097e-08 -8.73554967515553e-06 5.05369251572389e-24)
(4.18970805703546e-08 -8.7338490481816e-06 2.89159926306305e-24)
(6.52703308018932e-08 -8.73252849066171e-06 1.71393269845051e-24)
(8.51576357923468e-08 -8.73148959415656e-06 1.08318626447291e-24)
(1.02181770896952e-07 -8.7306821797157e-06 4.19549512062888e-25)
(1.16860999392669e-07 -8.73005796032661e-06 -2.43783876108462e-24)
(1.29637667344671e-07 -8.72959244306916e-06 3.64136348048901e-24)
(1.40914303650424e-07 -8.72925603873177e-06 8.06608277586845e-25)
(1.51047656744991e-07 -8.72905208556996e-06 -1.68759307942848e-24)
(1.60384281237798e-07 -8.72896616129838e-06 3.78933915498705e-24)
(1.69273137933427e-07 -8.72899818785982e-06 -1.43724567388465e-24)
(1.78055016428858e-07 -8.72915336160364e-06 3.37436864237025e-24)
(1.87098471542359e-07 -8.72943983816536e-06 3.0916865548546e-24)
(1.9680268804272e-07 -8.72986993061797e-06 -2.54055833045522e-24)
(2.07600678944019e-07 -8.7304736571649e-06 1.893142852395e-24)
(2.20024505503878e-07 -8.7312904957225e-06 -3.32695723309562e-24)
(2.34699697906302e-07 -8.73237713648571e-06 3.45763718836059e-24)
(2.52392165421283e-07 -8.73381913163362e-06 3.6129176731981e-24)
(2.74132674145914e-07 -8.73577920526152e-06 -2.36896278742629e-24)
(3.01326801129452e-07 -8.73851752960412e-06 2.37496947769757e-24)
(3.35948280024493e-07 -8.74247226968887e-06 -3.77369667237498e-24)
(3.80904754661292e-07 -8.74846251815597e-06 -6.33319054865991e-25)
(4.40746781589673e-07 -8.75798645931652e-06 1.16917565401333e-24)
(5.22763442310904e-07 -8.77379288188258e-06 -9.70801038430394e-24)
(6.38957478599615e-07 -8.8007139693586e-06 -7.39553658807143e-24)
(8.10548619118177e-07 -8.84696215742473e-06 -6.9090675325362e-24)
(1.07092535455544e-06 -8.92522459306849e-06 -1.01490123768277e-23)
(1.47939616774286e-06 -9.05400793828078e-06 -7.12146712303134e-24)
(2.12485208022049e-06 -9.24996956701153e-06 -7.40841188446938e-24)
(3.09110559187267e-06 -9.50681649154871e-06 -1.15519161981364e-23)
(4.49678867762603e-06 -9.69325005148409e-06 -7.60530446514462e-24)
(5.74379494571651e-06 -9.39810867250172e-06 -7.17555707590916e-24)
(6.10176022039849e-06 -7.98501117837474e-06 -9.95889707845282e-24)
(1.65811865366009e-06 -5.34353071052444e-06 -4.48971166007622e-24)
(-3.61952653732073e-07 -6.67556244295823e-08 1.19434064374445e-25)
(-4.91719463074176e-06 -2.23417596378318e-06 -5.46815024046557e-24)
(-4.97413783342319e-06 -4.57842446852857e-06 6.02864135808788e-25)
(-4.22448610185017e-06 -5.10705497919969e-06 3.3764815675485e-25)
(-3.10103099508611e-06 -4.8343507453775e-06 -5.83313729577888e-24)
(-2.25120405308281e-06 -4.41130109623394e-06 -6.801874701058e-24)
(-1.62971231200667e-06 -4.08362481976832e-06 -4.56081767454554e-25)
(-1.19987902377604e-06 -3.86724213856474e-06 -4.81773726417425e-25)
(-8.9929278316489e-07 -3.7344882165281e-06 -6.32617951744812e-24)
(-6.81449655745961e-07 -3.65420591585716e-06 -5.65484709252639e-24)
(-5.18935359438605e-07 -3.60529816973873e-06 1.02243265072176e-23)
(-3.93346440604474e-07 -3.57462392830963e-06 3.42950148159968e-24)
(-2.9361790699689e-07 -3.55457713897067e-06 -4.18739150010337e-24)
(-2.12685696115775e-07 -3.54085124774002e-06 6.79508082603166e-24)
(-1.45832028902861e-07 -3.53101197572456e-06 -4.50192537820932e-24)
(-8.98738362542443e-08 -3.52367754806438e-06 1.04501563970592e-24)
(-4.25390484614313e-08 -3.51803579564821e-06 2.02979439682737e-24)
(-2.15065406480043e-09 -3.51361340294917e-06 -2.84962808036651e-24)
(3.25693201837406e-08 -3.51009790644048e-06 4.47372084206099e-25)
(6.26217096053337e-08 -3.50728124022282e-06 -5.19247422537668e-24)
(8.88380523726313e-08 -3.50504080378399e-06 -6.41820366070663e-25)
(1.11916324369851e-07 -3.50328352957519e-06 -6.95745270221187e-24)
(1.32470246042848e-07 -3.50193690998303e-06 9.8592066842134e-25)
(1.51047916794909e-07 -3.50095324709952e-06 2.74057773940383e-25)
(1.68147405924404e-07 -3.5003162465138e-06 -5.30659146819173e-24)
(1.8426411613294e-07 -3.50000813139858e-06 5.36014458639399e-25)
(1.99880432947878e-07 -3.50002542123564e-06 -5.48349791419855e-24)
(2.15478264575016e-07 -3.5003783696033e-06 6.85788682527515e-24)
(2.31573302134652e-07 -3.50108914016893e-06 1.02972196723673e-24)
(2.48718028380777e-07 -3.50219451817266e-06 -6.13623441342757e-24)
(2.67519079423522e-07 -3.50376920397465e-06 6.16623760780956e-24)
(2.88691059307849e-07 -3.50588742023603e-06 -7.42493039866723e-24)
(3.13069741605691e-07 -3.50868032328433e-06 8.13238945558134e-24)
(3.41668441792938e-07 -3.51235574543641e-06 7.24423097378164e-24)
(3.7578839177717e-07 -3.51723474024294e-06 -7.52061763965799e-24)
(4.1714073558261e-07 -3.52380270099871e-06 -1.18520460017197e-25)
(4.68039217899364e-07 -3.53289405636924e-06 -1.25621881889025e-24)
(5.31710475616804e-07 -3.54589592628592e-06 8.90782819157254e-26)
(6.12904037919732e-07 -3.56527320006362e-06 4.28814077803529e-24)
(7.18763254923351e-07 -3.59538147574047e-06 -1.0196262294299e-23)
(8.60351012410371e-07 -3.64386210837896e-06 -4.78548544869357e-24)
(1.05631494779845e-06 -3.7238804970329e-06 -4.25545954561933e-24)
(1.33386803260145e-06 -3.85662411849388e-06 -1.19932119600302e-23)
(1.74047958751582e-06 -4.07372506878606e-06 -4.488499914092e-24)
(2.33891222097352e-06 -4.40453101891405e-06 -4.81622489382551e-24)
(3.17188605252357e-06 -4.83798494288929e-06 -1.3251042127675e-23)
(4.29475828326816e-06 -5.13202748028901e-06 -4.73316191915399e-24)
(5.08165815331292e-06 -4.60713965580687e-06 -4.60581046157946e-24)
(5.06584413477645e-06 -2.19371852540846e-06 -1.27695162430934e-23)
(4.33017590387859e-07 4.77889245486891e-08 -2.65582157577465e-24)
(2.10301297659411e-07 4.47467714129454e-06 3.6279409627204e-25)
(-2.78072545849324e-06 3.1832457806168e-06 -4.58940048282032e-24)
(-3.19948389983711e-06 -1.39119921363207e-07 8.47655736857641e-25)
(-3.1017807454429e-06 -1.09880621700635e-06 3.8530192943678e-25)
(-2.54803546186587e-06 -9.53669995200787e-07 -2.03515912085977e-24)
(-2.03976814498074e-06 -5.22883690484342e-07 -2.66755369100601e-24)
(-1.60525100481434e-06 -1.58460614087534e-07 1.01781162404996e-25)
(-1.26510424881099e-06 9.51115647388899e-08 9.07376856609967e-26)
(-1.00267985925475e-06 2.58105145652823e-07 -2.64781658554092e-24)
(-7.96718100537958e-07 3.61695733472543e-07 -4.34293762448631e-24)
(-6.33715011676896e-07 4.28388892525992e-07 4.49864894951746e-24)
(-5.02278716790826e-07 4.72618406602356e-07 1.2835576522436e-24)
(-3.94734491101982e-07 5.03038639793717e-07 -3.40370951018304e-24)
(-3.05572723571862e-07 5.24773020526992e-07 2.35307179828046e-24)
(-2.30735605925914e-07 5.40862604196904e-07 -4.08250935866028e-24)
(-1.67281709909588e-07 5.53140908097091e-07 9.00655288054041e-25)
(-1.12992836838034e-07 5.62739592514759e-07 -8.43754068111614e-26)
(-6.61661322336713e-08 5.70367805734282e-07 -2.46055916602138e-24)
(-2.54561794611112e-08 5.76481122905931e-07 7.85492858855851e-25)
(1.0211648830913e-08 5.81404444762498e-07 -4.05845959721603e-24)
(4.1737436084754e-08 5.85350167878234e-07 1.74320867805572e-25)
(6.98987516238826e-08 5.88469894248711e-07 -2.4508618695885e-24)
(9.53715263392633e-08 5.90864843259594e-07 -1.17185773333998e-24)
(1.18772484278069e-07 5.92604647270777e-07 5.0945964864782e-25)
(1.40672264586981e-07 5.93738367862984e-07 -1.82062832525169e-24)
(1.61621836277225e-07 5.94288818105088e-07 -1.70158350237212e-24)
(1.8216836852392e-07 5.94256224035131e-07 -1.77716766757348e-24)
(2.02859457808513e-07 5.93619628536112e-07 2.61864152050156e-24)
(2.24273080731926e-07 5.92351848170314e-07 -1.43039074151753e-24)
(2.47027830681801e-07 5.90377749610312e-07 -2.7129546603172e-24)
(2.71807012824546e-07 5.87593453537751e-07 1.57902765510101e-24)
(2.99399121020815e-07 5.83858486304807e-07 -3.34472602088962e-24)
(3.30712155410728e-07 5.78967631131043e-07 2.98416810623607e-24)
(3.66840974507997e-07 5.72596942149509e-07 3.15936326151273e-24)
(4.09151573381049e-07 5.64266405760733e-07 -2.70836335642707e-24)
(4.59367919785881e-07 5.53268761077015e-07 -9.23102820461402e-25)
(5.19743226191452e-07 5.38454557468586e-07 1.57884605040354e-24)
(5.93251470256012e-07 5.17988590584777e-07 9.75649176333729e-26)
(6.83954683063516e-07 4.88788376223143e-07 1.97531349441868e-24)
(7.97407436902311e-07 4.4568478576187e-07 -4.60073154081849e-24)
(9.41236708993245e-07 3.79956888421818e-07 -1.49487999439986e-26)
(1.12704329102267e-06 2.77087019335959e-07 6.18221770340924e-25)
(1.36810841071781e-06 1.14293246709808e-07 -4.67792640464734e-24)
(1.68662469133272e-06 -1.40442263439888e-07 -9.72115557469871e-26)
(2.0992564808835e-06 -5.10083001390376e-07 -2.59521609509449e-25)
(2.59046259531093e-06 -9.57155410325599e-07 -5.93159850841941e-24)
(3.14019182650651e-06 -1.13538371342991e-06 4.97905859091788e-25)
(3.26524885659189e-06 -1.89740702388795e-07 5.69797622034352e-25)
(2.89744311112782e-06 3.21807444834092e-06 -5.34889397304684e-24)
(-1.41885844871815e-07 4.60160298313288e-06 1.1345060357699e-24)
(2.75885492272601e-07 7.02910437431891e-06 9.74936841900394e-25)
(-9.4730726031951e-07 6.27876486248668e-06 8.69727323494076e-25)
(-1.58697555221229e-06 2.3091085163966e-06 1.47004535108091e-24)
(-1.96179517765999e-06 9.05420125208804e-07 5.82427943498706e-25)
(-1.90037616912684e-06 8.20721327493249e-07 2.61613349667561e-25)
(-1.7064499566272e-06 1.16268267292994e-06 1.18401363638177e-25)
(-1.46102755342689e-06 1.50522751476786e-06 5.66548329341704e-25)
(-1.22384398726553e-06 1.7645546525425e-06 6.19071202649538e-25)
(-1.01602764053272e-06 1.94227770181526e-06 2.28249453406665e-25)
(-8.3798171621335e-07 2.06168688815623e-06 2.23151897376112e-25)
(-6.88773317610345e-07 2.14257720164704e-06 2.14271559744713e-24)
(-5.63743743900926e-07 2.1986327221465e-06 1.52534065289504e-24)
(-4.58748014556993e-07 2.23860769388247e-06 3.97314573524518e-25)
(-3.70108883948824e-07 2.26798512718966e-06 1.30223728159206e-24)
(-2.94719995830735e-07 2.29019652757641e-06 2.21049333527956e-25)
(-2.30124434143204e-07 2.30739918116013e-06 1.43227635301579e-24)
(-1.74356588580469e-07 2.32097994185401e-06 1.36054201364124e-24)
(-1.2584372078881e-07 2.33184738946034e-06 1.15117851220369e-24)
(-8.33040539065514e-08 2.34060975450244e-06 1.68404982912735e-24)
(-4.56858587029309e-08 2.34767614682336e-06 6.04709401205879e-25)
(-1.20970072873834e-08 2.3533450710701e-06 1.18693724322771e-24)
(1.82294395748921e-08 2.35782302528505e-06 4.16410849403876e-25)
(4.59788218704338e-08 2.3612487411176e-06 9.82128201773153e-25)
(7.17830252280449e-08 2.36373145250198e-06 1.01023700813272e-24)
(9.62223829644353e-08 2.36531967847843e-06 5.70493360312985e-25)
(1.19858033277359e-07 2.36604815004681e-06 9.02130832200962e-25)
(1.4324153929595e-07 2.36592508624532e-06 3.49357455256372e-25)
(1.66939477133559e-07 2.36492079345602e-06 5.9439090288279e-25)
(1.91537085960802e-07 2.36298118804948e-06 2.90508531367176e-25)
(2.17658953049209e-07 2.36001573774713e-06 -3.92525881300766e-25)
(2.45999209947064e-07 2.35588149696467e-06 -3.4975879840006e-26)
(2.77337738609955e-07 2.3503796236378e-06 -1.39142660095586e-24)
(3.12574329867366e-07 2.34322729540582e-06 2.97350724467671e-25)
(3.52779224950119e-07 2.33400345552962e-06 5.01096369441308e-25)
(3.9924850933817e-07 2.32208530969378e-06 -4.09449369498316e-25)
(4.53565581057853e-07 2.30656196400105e-06 -3.63980140337869e-26)
(5.17717752919311e-07 2.28603486161143e-06 3.61807550841291e-26)
(5.94168607068381e-07 2.25835121909087e-06 -2.98088406733445e-25)
(6.86011057918395e-07 2.22004646370529e-06 4.3340300186104e-25)
(7.96934323927774e-07 2.1655954189927e-06 -1.37252354462762e-24)
(9.3097446696532e-07 2.0861879132283e-06 -7.06383151927209e-25)
(1.09291639919401e-06 1.96803250137975e-06 -3.41770480442331e-25)
(1.28333117620645e-06 1.79099169752453e-06 -1.23814711654756e-24)
(1.50245914499284e-06 1.530668401243e-06 -4.44899435488121e-25)
(1.72865330237127e-06 1.1818720476723e-06 -4.8230187151384e-25)
(1.90609261837237e-06 8.19313086131252e-07 -1.84697399217646e-24)
(1.96000507480518e-06 8.61195662516431e-07 -3.88256986315593e-25)
(1.60099489157809e-06 2.2393000871482e-06 -3.57844289784976e-25)
(1.00673641119426e-06 6.30461019679196e-06 -1.86242591266534e-24)
(-2.32341039479144e-07 7.15334591957273e-06 2.04252514648522e-25)
(1.96696846833306e-07 7.78009585871086e-06 1.17398869015551e-24)
(1.42571303957234e-07 7.21745289552754e-06 3.23079014883953e-24)
(-5.76291176286963e-07 3.05959915576679e-06 1.61120547713449e-24)
(-1.16029086920244e-06 1.37003528274144e-06 6.15568420490443e-25)
(-1.39001617537712e-06 1.0918791470304e-06 8.56206088329791e-25)
(-1.39885321877122e-06 1.33210159626429e-06 1.38175975053096e-24)
(-1.29055641210142e-06 1.63552780708328e-06 6.85185526342751e-25)
(-1.13679596774743e-06 1.88669408976397e-06 7.45937163215199e-25)
(-9.79467282077015e-07 2.06976212300939e-06 1.56288237652296e-24)
(-8.31812788009095e-07 2.19896787035264e-06 1.90426814435772e-24)
(-7.0116966487921e-07 2.29027650901549e-06 8.89480298993403e-25)
(-5.87738460574762e-07 2.35582148613045e-06 1.77759212540564e-24)
(-4.90170702484663e-07 2.40391392423405e-06 2.07177685111238e-24)
(-4.06400422334154e-07 2.44003399265763e-06 6.59555212900136e-25)
(-3.34260086955196e-07 2.46779658397929e-06 1.95433419781484e-24)
(-2.71846246521917e-07 2.4895479098862e-06 1.51523002177153e-24)
(-2.17518774793555e-07 2.50685375559457e-06 2.07267133102117e-24)
(-1.6990376790303e-07 2.52077251919666e-06 2.63375798144687e-24)
(-1.27849928529533e-07 2.53202999137527e-06 1.88933857376318e-24)
(-9.03856753589905e-08 2.54112083976825e-06 2.31602616194682e-24)
(-5.66692815141133e-08 2.5484065459702e-06 1.47515219672632e-24)
(-2.59689709090025e-08 2.55413901811472e-06 1.56135815059523e-24)
(2.37340120287975e-09 2.5585132632218e-06 1.60781805365395e-24)
(2.89613193078339e-08 2.56164521794285e-06 1.13830869588436e-24)
(5.4359095243573e-08 2.56360506759699e-06 1.75417207596662e-24)
(7.91178462550179e-08 2.56443857636747e-06 1.75478665586599e-24)
(1.03772608578787e-07 2.56414796375341e-06 1.21960785794748e-24)
(1.2886617431877e-07 2.56270473488357e-06 -2.05033678614137e-25)
(1.54970030935767e-07 2.56003045132519e-06 8.11742226874383e-25)
(1.82688450692777e-07 2.55601998188218e-06 6.81525360467076e-25)
(2.12682963287467e-07 2.55048777742324e-06 -6.57759310273688e-25)
(2.4569494764841e-07 2.54318874128006e-06 -1.48262119959985e-25)
(2.82567406769639e-07 2.53377417207692e-06 -9.45074616853431e-25)
(3.24288821470635e-07 2.52173669541218e-06 -7.8802446651643e-25)
(3.72020498899951e-07 2.50634199796673e-06 6.4129932162282e-25)
(4.27132918763358e-07 2.48652768307062e-06 7.05677798374751e-25)
(4.91280174940203e-07 2.46072507442876e-06 -4.78416678849137e-25)
(5.66359682177388e-07 2.42657981540856e-06 -5.07158625098067e-25)
(6.54502031302398e-07 2.38047909306942e-06 -4.85697360209355e-25)
(7.57759441803838e-07 2.31689378474009e-06 6.7774863673705e-25)
(8.77324860054278e-07 2.22746297505056e-06 -7.34825668605192e-25)
(1.01303661058149e-06 2.09996934970874e-06 -6.07496314556446e-25)
(1.15705611146195e-06 1.91810473373738e-06 6.83015935101961e-25)
(1.29647721716713e-06 1.66646551783942e-06 -5.57452595031586e-25)
(1.38838833209034e-06 1.3567012741011e-06 -5.50587867558067e-25)
(1.36414420041579e-06 1.09356609793228e-06 5.81781119315372e-25)
(1.12456436334666e-06 1.32247885512397e-06 -6.409995166538e-25)
(5.4795013713364e-07 2.97728854924371e-06 -5.87261856741e-25)
(-1.38692103595415e-07 7.23335004403908e-06 1.09450881759683e-24)
(-1.81868643805818e-07 7.89567868431505e-06 -5.43766385349558e-26)
(1.51304348357687e-07 7.41339848559063e-06 9.60867566679647e-25)
(5.84204011859103e-07 6.89312637241647e-06 3.63170435309218e-24)
(-1.10698957307916e-07 2.86924040577651e-06 1.2747616948625e-24)
(-7.08168192079894e-07 1.04871394689874e-06 4.38421730389932e-25)
(-1.05144379633068e-06 6.42829788174294e-07 5.2405448161207e-25)
(-1.15880625102592e-06 7.97061983287651e-07 1.07186646765847e-24)
(-1.13285289453055e-06 1.06073206869792e-06 4.98903813947636e-25)
(-1.03732384247001e-06 1.2982415243327e-06 5.54845663205148e-25)
(-9.20206305363176e-07 1.48110071961798e-06 1.3167471588024e-24)
(-7.99789367137997e-07 1.61569027386921e-06 1.87305763303052e-24)
(-6.8761099687639e-07 1.71423057933606e-06 5.01986980807894e-25)
(-5.86855124583223e-07 1.78705747832291e-06 1.89653132527303e-24)
(-4.98140657670711e-07 1.84177211272218e-06 2.35930938173063e-24)
(-4.2067420943529e-07 1.88363244379742e-06 5.73353924400798e-25)
(-3.5311327745459e-07 1.916253078271e-06 2.06831531905569e-24)
(-2.94086662632503e-07 1.9420677604212e-06 1.19697981705935e-24)
(-2.42290776260702e-07 1.96275031099209e-06 2.08852059769139e-24)
(-1.96575842946632e-07 1.97945668580507e-06 2.64932415365921e-24)
(-1.55941102795575e-07 1.99300264611625e-06 1.49144778460543e-24)
(-1.19514868646843e-07 2.00394925985645e-06 2.39790303411708e-24)
(-8.65265820419464e-08 2.0127150300843e-06 1.16298173265518e-24)
(-5.62947076473951e-08 2.01959959635973e-06 1.34109789693563e-24)
(-2.82047759794702e-08 2.02481917069808e-06 1.7911717925624e-24)
(-1.68880121755574e-09 2.02850460620747e-06 8.81310245748117e-25)
(2.37970430011584e-08 2.03076470249924e-06 1.41344621816848e-24)
(4.87722253789754e-08 2.03164045084213e-06 1.83766644884747e-24)
(7.37434025100751e-08 2.03113318643116e-06 9.60772171490336e-25)
(9.92325638238761e-08 2.02920735481087e-06 -1.66932796292337e-25)
(1.25781629457069e-07 2.02577747125255e-06 1.23087276650637e-24)
(1.53958716576198e-07 2.02070807668551e-06 7.08835921082983e-25)
(1.84383059586602e-07 2.01378555664405e-06 -4.47135740639625e-25)
(2.17740813863156e-07 2.00473064632021e-06 1.18812752093451e-26)
(2.5480171298004e-07 1.99313459884151e-06 -8.03411277415208e-25)
(2.96450625309811e-07 1.97842521595205e-06 -6.92687790873466e-25)
(3.43693410556752e-07 1.95977985315798e-06 6.55186929361178e-25)
(3.97674260108655e-07 1.93604201550415e-06 1.04998887115667e-24)
(4.59693437557123e-07 1.90554802178887e-06 -8.2315061347323e-25)
(5.3110957780776e-07 1.86585036580665e-06 -4.46498828423935e-25)
(6.13225911023098e-07 1.81335404768335e-06 -3.92372625127374e-25)
(7.06792448034134e-07 1.74274252068183e-06 8.35351339055559e-25)
(8.11016416993792e-07 1.64640249531312e-06 -1.07814268108727e-24)
(9.22699298389078e-07 1.51394306810072e-06 -9.4726775355017e-25)
(1.02971713977632e-06 1.33284051939506e-06 7.66487664786968e-25)
(1.1139115500091e-06 1.09559044633106e-06 -8.46012936949402e-25)
(1.12602080897448e-06 8.259811597208e-07 -8.8926819636936e-25)
(1.00484554691097e-06 6.47598856942636e-07 8.05844647210639e-25)
(6.51118466181088e-07 9.99543329121579e-07 -9.92102181217987e-25)
(5.71781934896998e-08 2.77803042117302e-06 -8.56032293712556e-25)
(-6.17619042380405e-07 6.89542582079906e-06 1.44985035432412e-24)
(-1.56220385488404e-07 7.51430240349248e-06 -5.92956306463237e-25)
(1.53999113223029e-07 6.6406723686085e-06 5.75068136785521e-25)
(6.38291056451781e-07 6.17971803708827e-06 2.15762525679503e-24)
(2.70828310414449e-08 2.41887106116474e-06 7.61624326079479e-25)
(-4.88340402597756e-07 5.59949813859016e-07 2.280992930253e-25)
(-8.3902522116192e-07 7.60345958268644e-08 -1.68983519192482e-26)
(-9.78897526148164e-07 1.62020381751252e-07 6.70400625190454e-25)
(-9.96563120258987e-07 3.88460778180943e-07 2.94907642882997e-25)
(-9.39371421713109e-07 6.09081455264877e-07 3.33661795092755e-25)
(-8.52695991252412e-07 7.87415684401238e-07 8.76774502567758e-25)
(-7.55088596621304e-07 9.23617450881998e-07 1.10175535040275e-24)
(-6.59530602179442e-07 1.02649908475446e-06 1.72884437628875e-25)
(-5.70817419205866e-07 1.10453306857117e-06 9.25561164338401e-25)
(-4.90851734022485e-07 1.16440694459317e-06 1.28414510935065e-24)
(-4.19811647055203e-07 1.21100429453114e-06 2.68043865805215e-25)
(-3.57039156043455e-07 1.24777464065747e-06 1.20977779681651e-24)
(-3.01637469382126e-07 1.27715809273877e-06 6.91808142648207e-25)
(-2.5262502506867e-07 1.30085711534233e-06 1.12718892669852e-24)
(-2.09069882043792e-07 1.32008493053251e-06 1.51795630990952e-24)
(-1.70127867795475e-07 1.33570629291268e-06 8.72302701571518e-25)
(-1.35034970861169e-07 1.34834987988524e-06 1.38210776242898e-24)
(-1.03090163516947e-07 1.35847355455941e-06 6.88540035058452e-25)
(-7.36721981709843e-08 1.36640137989669e-06 8.58140586701447e-25)
(-4.62166565497117e-08 1.37237389319889e-06 9.11078320313699e-25)
(-2.01826639944644e-08 1.37655703150409e-06 5.12741052703389e-25)
(4.94030016133027e-09 1.37906226032601e-06 8.91642949745468e-25)
(2.96371858429805e-08 1.37993334702083e-06 1.00576889043927e-24)
(5.43925971243113e-08 1.37917725083684e-06 6.07622731397805e-25)
(7.96962955519667e-08 1.37675887330081e-06 -1.72373093255235e-25)
(1.06059709262723e-07 1.37257599066926e-06 5.79073150443417e-25)
(1.34013461957782e-07 1.36646620187254e-06 5.03420802337413e-25)
(1.64134257262287e-07 1.35820384149162e-06 -2.96182053946381e-25)
(1.97049358348949e-07 1.347469878778e-06 1.19270641813765e-25)
(2.33447543162056e-07 1.33381967497862e-06 -5.4787779075089e-25)
(2.74103652868458e-07 1.31662543036605e-06 -4.86136482040224e-25)
(3.19867681835189e-07 1.29501784459327e-06 4.69132324619023e-25)
(3.71664912538987e-07 1.26778514419667e-06 5.50752368585283e-25)
(4.30464808031265e-07 1.23322281186743e-06 -3.94270092019867e-25)
(4.97148809147237e-07 1.18891238893078e-06 -2.62192790788468e-25)
(5.72322366518348e-07 1.13141081458096e-06 -2.39537825533775e-25)
(6.55763606514236e-07 1.05580733656573e-06 1.07529354186577e-24)
(7.4539531512037e-07 9.55412291601924e-07 -4.07359052513741e-25)
(8.36370967344656e-07 8.2175631252245e-07 -4.09410986568309e-25)
(9.15137788636845e-07 6.45751401844363e-07 8.96806523385993e-25)
(9.63195480018323e-07 4.26163750324596e-07 -3.86591785720892e-25)
(9.33871631321773e-07 1.9431300523196e-07 -3.71469854001441e-25)
(7.82160798966965e-07 8.33238545430609e-08 9.87812051068461e-25)
(4.2191142215681e-07 5.09216708530666e-07 -4.73042962939922e-25)
(-9.04475675579333e-08 2.31964912200557e-06 -4.22557138512386e-25)
(-6.88692632889906e-07 6.16398480528822e-06 1.93916159538527e-24)
(-1.67843405713614e-07 6.72010122362448e-06 -1.61574306001389e-25)
(1.65518109803612e-07 5.8942372493864e-06 3.26501809758577e-25)
(5.27133576854618e-07 5.55273215220066e-06 1.58878599299171e-24)
(2.29112879111036e-08 2.04892825574117e-06 4.29784108685329e-25)
(-3.8735019686506e-07 1.89002804350459e-07 1.53605376028319e-25)
(-6.99906979866614e-07 -3.45238177271428e-07 3.80777987896248e-25)
(-8.40185720494457e-07 -3.14301980955163e-07 7.1631352305459e-25)
(-8.78969325320644e-07 -1.22594085803929e-07 1.87710142439048e-25)
(-8.46955559662815e-07 7.90720748023896e-08 2.03942400760783e-25)
(-7.83241383312942e-07 2.49580058712315e-07 7.83956131866335e-25)
(-7.04455949044338e-07 3.84300111522493e-07 7.86920406549585e-25)
(-6.23434584721851e-07 4.89040774403343e-07 -2.261097764102e-25)
(-5.45707939331093e-07 5.70444178297898e-07 3.91812628345974e-25)
(-4.7396777702965e-07 6.3415889427948e-07 9.0780975157613e-25)
(-4.09105737163186e-07 6.84544912056971e-07 -1.68363789288012e-25)
(-3.51020604185271e-07 7.24803614783179e-07 8.74227403058764e-25)
(-2.9921903777326e-07 7.57274157784948e-07 3.57522751269751e-25)
(-2.53016110390322e-07 7.83645660892518e-07 5.32669798121334e-25)
(-2.11686528608402e-07 8.05141121116162e-07 1.04922148460264e-24)
(-1.74527171067232e-07 8.22654331246274e-07 4.84295582930467e-25)
(-1.40875874094697e-07 8.36846629774281e-07 1.00100530684249e-24)
(-1.10121160327924e-07 8.48209942760932e-07 3.92057091005674e-25)
(-8.16964239895483e-08 8.57088881646927e-07 6.64691745425513e-25)
(-5.50725355435312e-08 8.63752835227328e-07 4.31295204733957e-25)
(-2.97524374969798e-08 8.68382090630446e-07 2.76083683327568e-25)
(-5.2604324075801e-09 8.71091708837243e-07 7.74150663315754e-25)
(1.8862000071545e-08 8.71939233568086e-07 5.04141685547743e-25)
(4.30741869792813e-08 8.70929103582071e-07 5.67797545194975e-25)
(6.78368870032066e-08 8.68016818872056e-07 -4.15050559741433e-25)
(9.3621778065348e-08 8.63096237204122e-07 2.33920968703831e-25)
(1.20928668622329e-07 8.55992557720573e-07 4.9109177598829e-25)
(1.50288424324806e-07 8.46461588792079e-07 -4.36731642766716e-25)
(1.82267048551134e-07 8.34151345714268e-07 3.63195708883469e-25)
(2.17476125222177e-07 8.18591185220021e-07 -6.03013333381551e-25)
(2.56583451425697e-07 7.99121220270149e-07 -5.33350544237164e-25)
(3.00291910508766e-07 7.74850336691611e-07 4.97898564962448e-25)
(3.49315537421356e-07 7.44552768497381e-07 2.59063520095938e-25)
(4.04329750158911e-07 7.06551759472677e-07 -1.50425799898232e-25)
(4.65811561785932e-07 6.58532450954192e-07 -1.45785804038434e-25)
(5.3381273261938e-07 5.97306887442466e-07 -3.96186056428598e-25)
(6.07390239076138e-07 5.18523865200065e-07 7.61683633702945e-25)
(6.83690851966299e-07 4.16530150399641e-07 -1.02681090574983e-25)
(7.57131732831524e-07 2.84740850643258e-07 -1.04901161180858e-25)
(8.14355387484501e-07 1.17121274963315e-07 7.3054898823451e-25)
(8.38808555830593e-07 -8.28074666103678e-08 -1.02669272614387e-25)
(7.90247277683698e-07 -2.79472217798494e-07 -8.59070103522315e-26)