/*--------------------------------*- C++ -*----------------------------------*\
  =========                 |
  \\      /  F ield         | OpenFOAM: The Open Source CFD Toolbox
   \\    /   O peration     | Website:  https://openfoam.org
    \\  /    A nd           | Version:  10
     \\/     M anipulation  |
\*---------------------------------------------------------------------------*/
FoamFile
{
    format      ascii;
    class       volScalarField;
    location    "5.2";
    object      wallHeatFlux;
}
// * * * * * * * * * * * * * * * * * * * * * * * * * * * * * * * * * * * * * //

dimensions      [1 0 -3 0 0 0 0];

internalField   uniform 0;

boundaryField
{
    back
    {
        type            calculated;
        value           uniform 0;
    }
    bottom
    {
        type            calculated;
        value           nonuniform List<scalar> 
50
(
115.910555065664
118.787857323314
122.98246351968
125.614298783244
127.021910921217
127.733722213774
128.080886234348
128.24304897248
128.315037122918
128.345469678873
128.357450489777
128.361969202666
128.363589621315
128.364073453034
128.364200785094
128.364167507218
128.364174515116
128.364137708103
128.364084098174
128.364064701594
128.36404849026
128.364039600239
128.364033009479
128.364035161727
128.364027513708
128.364022379844
128.364027251523
128.364031521944
128.364042690249
128.364055066612
128.364071314555
128.364105525253
128.364117990227
128.364127457212
128.364138248409
128.36410984298
128.363935428153
128.36327511154
128.361468596069
128.356403671238
128.343332870614
128.311349856872
128.237071366763
128.072777220517
127.725995169279
127.018582905127
125.617623312126
122.976978259605
118.737653741614
115.941523091912
)
;
    }
    left
    {
        type            calculated;
        value           uniform 0;
    }
    front
    {
        type            calculated;
        value           uniform 0;
    }
    right
    {
        type            calculated;
        value           uniform 0;
    }
    top
    {
        type            calculated;
        value           uniform 0;
    }
}


// ************************************************************************* //
