/*--------------------------------*- C++ -*----------------------------------*\
  =========                 |
  \\      /  F ield         | OpenFOAM: The Open Source CFD Toolbox
   \\    /   O peration     | Website:  https://openfoam.org
    \\  /    A nd           | Version:  10
     \\/     M anipulation  |
\*---------------------------------------------------------------------------*/
FoamFile
{
    format      ascii;
    class       volScalarField;
    location    "10";
    object      alphat;
}
// * * * * * * * * * * * * * * * * * * * * * * * * * * * * * * * * * * * * * //

dimensions      [1 -1 -1 0 0 0 0];

internalField   nonuniform List<scalar> 
2500
(
4.44989707760055e-15
8.78194462067304e-14
3.77759515462367e-13
6.63204424348093e-13
9.21393856079375e-13
1.14370939798926e-12
1.32634279076384e-12
1.46956496608417e-12
1.57684203933285e-12
1.6536434780535e-12
1.70623882136159e-12
1.74072393645623e-12
1.76239329186684e-12
1.77545610471051e-12
1.78301857447012e-12
1.78722770034476e-12
1.7894823517876e-12
1.7906458576627e-12
1.79122483164493e-12
1.79150284688326e-12
1.79163172299968e-12
1.79168936203749e-12
1.79171413447687e-12
1.79172414396517e-12
1.79172740946547e-12
1.79172681351724e-12
1.79172206222964e-12
1.79170958405198e-12
1.79168025667973e-12
1.79161413086823e-12
1.7914698492336e-12
1.79116501128601e-12
1.79054167462581e-12
1.78930908976741e-12
1.78695433573892e-12
1.78261256317072e-12
1.77489438846014e-12
1.76168124636103e-12
1.739921532026e-12
1.70548909442149e-12
1.65319266607902e-12
1.57703621009475e-12
1.47080733708816e-12
1.32900181573295e-12
1.1479802853079e-12
9.2712874038166e-13
6.69723507982899e-13
3.83590860407308e-13
9.00537571805309e-14
4.62406005268156e-15
4.42542075271238e-13
2.29060478811871e-11
1.00569628458088e-10
1.76654138955211e-10
2.45518599441966e-10
3.04890593153965e-10
3.53744451380944e-10
3.92130951528286e-10
4.20948768700702e-10
4.41632901710105e-10
4.55838086831e-10
4.6518074013737e-10
4.71070800656005e-10
4.74633924172818e-10
4.76704318341442e-10
4.77861072755065e-10
4.78483151249568e-10
4.78805479835827e-10
4.78966543453934e-10
4.79044214785474e-10
4.79080377032142e-10
4.7909662338313e-10
4.79103639045042e-10
4.79106488284583e-10
4.79107423648539e-10
4.79107258378412e-10
4.79105911381276e-10
4.79102379557897e-10
4.79094108242702e-10
4.79075531756245e-10
4.79035159386064e-10
4.78950193346226e-10
4.78777126432187e-10
4.78436209927313e-10
4.77787356136598e-10
4.76595360814748e-10
4.74483955180956e-10
4.70881780066232e-10
4.64969229150364e-10
4.55642605898458e-10
4.41518977471588e-10
4.21007716098495e-10
3.92468338067464e-10
3.54455801409945e-10
3.06025126258575e-10
2.47035003248479e-10
1.78371600336393e-10
1.02100714191501e-10
2.34787947135241e-11
4.59280255890371e-13
1.57554122992337e-12
4.13106107629841e-10
1.42774209559641e-07
2.50579090826767e-07
3.47685816654851e-07
4.31188098677066e-07
4.99778484576407e-07
5.53623630958539e-07
5.94040976935129e-07
6.23066688598892e-07
6.4302337975928e-07
6.56170202118859e-07
6.64475416788151e-07
6.69511337044449e-07
6.72445105651982e-07
6.74088815034232e-07
6.74975380073059e-07
6.754361719916e-07
6.75667163978165e-07
6.75778929159096e-07
6.75831145733457e-07
6.75854690508308e-07
6.75864897767727e-07
6.75869061608137e-07
6.7587043794243e-07
6.75870207488895e-07
6.75868258562006e-07
6.75863148518789e-07
6.75851207021777e-07
6.75824455990213e-07
6.75766467785327e-07
6.75644739925389e-07
6.75397416369391e-07
6.74911431874118e-07
6.73988723406485e-07
6.72297646939659e-07
6.69309028834334e-07
6.64221245347422e-07
6.55886728771331e-07
6.42762406919065e-07
6.22915800148442e-07
5.94121782806727e-07
5.54076430579199e-07
5.00730105476347e-07
4.32703688070881e-07
3.49709361843494e-07
2.52866686637236e-07
1.44803959921404e-07
4.22597744313481e-10
1.626721124526e-12
2.79846988082174e-12
7.38942155696346e-10
2.5662183168895e-07
4.49322200237955e-07
6.22140761636902e-07
7.70228480818808e-07
8.91531758376759e-07
9.8655641916318e-07
1.05777724725729e-06
1.10887567247071e-06
1.14399096483779e-06
1.16712073228555e-06
1.18173474635553e-06
1.19059942600314e-06
1.19576658066862e-06
1.19866360710271e-06
1.2002274388068e-06
1.2010409806953e-06
1.20144921387805e-06
1.20164695437832e-06
1.20173945000959e-06
1.20178121293077e-06
1.20179934684729e-06
1.20180676095105e-06
1.20180922745839e-06
1.20180884849727e-06
1.20180544580894e-06
1.20179649427872e-06
1.20177555566335e-06
1.20172862255399e-06
1.20162683714025e-06
1.20141308091102e-06
1.2009786155538e-06
1.20012462993915e-06
1.1985027814428e-06
1.19552968098807e-06
1.19027426556348e-06
1.18132564264007e-06
1.16666287769387e-06
1.14356565112349e-06
1.10862057406405e-06
1.05788363987858e-06
9.87244985859575e-07
8.93001681546814e-07
7.72580546556792e-07
6.25281414451461e-07
4.52855722590734e-07
2.5971522607042e-07
7.53020051659921e-10
2.87282875656319e-12
4.0164083871127e-12
1.06112596671188e-09
3.68092195048244e-07
6.43018274417616e-07
8.88649363995728e-07
1.09848351463759e-06
1.26994771199715e-06
1.40402056358439e-06
1.50437788954438e-06
1.57632100935357e-06
1.62573908347141e-06
1.65828556836481e-06
1.67885170435865e-06
1.69133072856711e-06
1.69860802621797e-06
1.70269053105789e-06
1.7048958246509e-06
1.70604397955503e-06
1.70662063120783e-06
1.70690022528423e-06
1.70703115234966e-06
1.70709034116526e-06
1.70711608013142e-06
1.70712662664531e-06
1.70713015692285e-06
1.70712966210193e-06
1.70712491693274e-06
1.70711238905915e-06
1.70708305418687e-06
1.7070172575428e-06
1.70687448048312e-06
1.70657448201951e-06
1.70596443632996e-06
1.7047648178972e-06
1.70248569886009e-06
1.69830632057348e-06
1.69091638097902e-06
1.67832953718503e-06
1.65769894988397e-06
1.62518889816078e-06
1.57597840506378e-06
1.50448068240439e-06
1.40484289176902e-06
1.27173622154746e-06
1.10136069797462e-06
8.92492620112844e-07
6.47325814898113e-07
3.7182964838512e-07
1.07804191005051e-09
4.1063030391827e-12
5.20059089428552e-12
1.37409888628819e-09
4.75735841391026e-07
8.29259020557516e-07
1.14403637461294e-06
1.41219824660291e-06
1.63085244688271e-06
1.80155029987002e-06
1.92917959365771e-06
2.02060875130867e-06
2.08338915409045e-06
2.12473242332648e-06
2.15086069212031e-06
2.16671950673888e-06
2.17597186865355e-06
2.18116526613733e-06
2.18397249128937e-06
2.1854351316983e-06
2.18617035074036e-06
2.18652716337344e-06
2.18669442708332e-06
2.18677013499181e-06
2.18680310650544e-06
2.18681664597585e-06
2.18682120461586e-06
2.18682062369825e-06
2.18681464748202e-06
2.1867988132723e-06
2.18676170017855e-06
2.1866784076002e-06
2.18649757079708e-06
2.18611741884044e-06
2.18534403722056e-06
2.18382261677905e-06
2.18093108123751e-06
2.17562699102925e-06
2.16624566666414e-06
2.1502626863457e-06
2.12405823464733e-06
2.08275112842246e-06
2.02019770684589e-06
1.92926055882759e-06
1.80242829237421e-06
1.63280081943507e-06
1.41535030155398e-06
1.14825024791233e-06
8.33971075254726e-07
4.79807233657109e-07
1.39264606290064e-09
5.30074784926052e-12
6.33354794668932e-12
1.67353069628203e-09
5.78269835172574e-07
1.00595469133779e-06
1.38558806687203e-06
1.70820160422786e-06
1.97075309279614e-06
2.175433243114e-06
2.32832354331929e-06
2.43778397451854e-06
2.51292403132128e-06
2.56240445391723e-06
2.59367998978118e-06
2.61266879353593e-06
2.62375203638536e-06
2.62997646003205e-06
2.6333431176743e-06
2.63509850056395e-06
2.63598158575334e-06
2.63641054960962e-06
2.63661184298222e-06
2.63670306283511e-06
2.63674284883593e-06
2.63675922214941e-06
2.63676476576202e-06
2.63676412577248e-06
2.63675703002865e-06
2.63673816435944e-06
2.63669390698123e-06
2.63659452906298e-06
2.6363786709867e-06
2.63592470267836e-06
2.635000778633e-06
2.63318254358977e-06
2.62972577350394e-06
2.62338302325632e-06
2.61216174421009e-06
2.59303943513257e-06
2.56168026434743e-06
2.51223351002564e-06
2.43732639282694e-06
2.32837530717908e-06
2.17631167719439e-06
1.97274121608445e-06
1.71143493329445e-06
1.3899147024444e-06
1.01078740322016e-06
5.82443283549504e-07
1.69282601940787e-09
6.44001548789723e-12
7.40213129274693e-12
1.95602825969368e-09
6.74655109581805e-07
1.17145424883461e-06
1.61120575034673e-06
1.98408429541185e-06
2.28703351668184e-06
2.52291943299761e-06
2.69897458349142e-06
2.82495757480092e-06
2.91142041325982e-06
2.96835665635582e-06
3.00435087665391e-06
3.02621129911007e-06
3.03897598861231e-06
3.04614843490756e-06
3.05003020649403e-06
3.0520555670239e-06
3.05307526235192e-06
3.05357101919673e-06
3.05380388803165e-06
3.05390954083431e-06
3.05395568951029e-06
3.05397472254966e-06
3.05398120143049e-06
3.05398052611456e-06
3.05397242043363e-06
3.0539507985002e-06
3.0539000351895e-06
3.05378599810607e-06
3.05353820154803e-06
3.0530168664711e-06
3.05195545701703e-06
3.04986597382697e-06
3.04589235404426e-06
3.0385993703486e-06
3.02569404046278e-06
3.00369728573052e-06
2.96761657050139e-06
2.91071115587587e-06
2.82447814189759e-06
2.69900028666619e-06
2.52376517332199e-06
2.28897841971054e-06
1.98725929635516e-06
1.61545639199879e-06
1.17619976915934e-06
6.787619700605e-07
1.97542133535643e-09
7.5118737298839e-12
8.39668538790792e-12
2.21908117835288e-09
7.64130583339346e-07
1.32459103409432e-06
1.81945409732539e-06
2.23824560032746e-06
2.57799814992609e-06
2.84226230945134e-06
3.03936004025986e-06
3.1803436779038e-06
3.27708542919114e-06
3.34079202423707e-06
3.38107359282412e-06
3.40554530049162e-06
3.41984059150769e-06
3.42787707242995e-06
3.43222898320676e-06
3.43450114075696e-06
3.43564593972361e-06
3.43620298752569e-06
3.43646489873468e-06
3.43658386398869e-06
3.43663590248507e-06
3.43665741082505e-06
3.43666477032708e-06
3.43666408027931e-06
3.43665507047745e-06
3.43663096270543e-06
3.43657432364985e-06
3.43644703973409e-06
3.43617036572436e-06
3.43558808327725e-06
3.43440221250092e-06
3.43206703291715e-06
3.42762500477301e-06
3.41947045532536e-06
3.40503762497346e-06
3.38043276630806e-06
3.34006668263563e-06
3.2763894477183e-06
3.17986938510669e-06
3.03937233884862e-06
2.84306253958989e-06
2.57985117139452e-06
2.24127238090491e-06
1.82350276940486e-06
1.32910864578582e-06
7.6805554721886e-07
2.23810817886458e-09
8.50740108552061e-12
9.31076575284288e-12
2.46100932954475e-09
8.46207423158997e-07
1.46466136642726e-06
2.00952010247827e-06
2.46983329928484e-06
2.84279565090193e-06
3.13262960117586e-06
3.34867119538836e-06
3.5031545258797e-06
3.60914711900103e-06
3.67894920115667e-06
3.72309325073472e-06
3.74991952308691e-06
3.76559641428237e-06
3.77441379021303e-06
3.77919120491825e-06
3.78168708477633e-06
3.78294549395413e-06
3.78355831517802e-06
3.78384671683906e-06
3.7839778594595e-06
3.7840353052535e-06
3.7840590982354e-06
3.78406728027061e-06
3.78406659324212e-06
3.78405678002218e-06
3.78403044779184e-06
3.78396854450658e-06
3.78382938757101e-06
3.78352681977865e-06
3.7828898588788e-06
3.78159226749701e-06
3.77903642636801e-06
3.77417351733455e-06
3.76524450431564e-06
3.7494381295545e-06
3.72248736543932e-06
3.67826575713553e-06
3.60849439252282e-06
3.50271389140303e-06
3.34869068074968e-06
3.13338908025709e-06
2.84453816754372e-06
2.47266557707427e-06
2.01329558141665e-06
1.46886807416994e-06
8.4988018774661e-07
2.47936292679506e-09
9.42078368336757e-12
1.01408074797647e-11
2.68087726541665e-09
9.2064026619224e-07
1.59136686115773e-06
2.18112671539691e-06
2.67863208075119e-06
3.08128680437972e-06
3.39395550313035e-06
3.62690397890556e-06
3.79343312900542e-06
3.90768167518968e-06
3.98292622137552e-06
4.03052139577698e-06
4.059453395668e-06
4.07636723219721e-06
4.08588462832717e-06
4.09104402501253e-06
4.09374106641288e-06
4.0951018130494e-06
4.09576497650741e-06
4.09607734596663e-06
4.09621953805734e-06
4.096281908376e-06
4.09630779291912e-06
4.09631673706991e-06
4.09631606756277e-06
4.09630554617309e-06
4.09627723881768e-06
4.09621065647207e-06
4.09606094347084e-06
4.09573534655089e-06
4.09504973503522e-06
4.09365269085349e-06
4.09090032443978e-06
4.08566240803536e-06
4.07604308622561e-06
4.05901204400119e-06
4.02996912605323e-06
3.98230832103431e-06
3.90709979918538e-06
3.79305523001132e-06
3.62695721296469e-06
3.39469317166845e-06
3.08292500846657e-06
2.68125991656166e-06
2.18460344025622e-06
1.59522760491082e-06
9.24027801342527e-07
2.69838199596206e-09
1.02490044474761e-11
1.08857341976191e-11
2.87839151823343e-09
9.87390668417882e-07
1.70474699215823e-06
2.3344371015352e-06
2.86494394946481e-06
3.29390601737543e-06
3.62678788699791e-06
3.87469582837803e-06
4.05188290521871e-06
4.17343822913516e-06
4.25350215217685e-06
4.30415568697273e-06
4.33495555274374e-06
4.35296784784692e-06
4.36310769178954e-06
4.36860723296817e-06
4.37148369278712e-06
4.37293588077255e-06
4.37364411894425e-06
4.37397799977341e-06
4.37413013765041e-06
4.37419695700169e-06
4.37422474091039e-06
4.37423438524331e-06
4.37423374476248e-06
4.37422260442656e-06
4.37419255723814e-06
4.37412184939982e-06
4.37396282777259e-06
4.37361691830501e-06
4.37288837907706e-06
4.37140354239076e-06
4.3684776156093e-06
4.36290837972033e-06
4.35267895929972e-06
4.33456524758913e-06
4.30367235304384e-06
4.25296992702437e-06
4.17295204336376e-06
4.05159632646992e-06
3.8748132005979e-06
3.627533171288e-06
3.2954652692168e-06
2.86738600052264e-06
2.33762572916284e-06
1.70826487364459e-06
9.90489840517508e-07
2.89498083599027e-09
1.09914561714098e-11
1.15465574448357e-11
3.0537978378518e-09
1.04659127673295e-06
1.80511577264373e-06
2.46996736714763e-06
3.02948137884635e-06
3.4815392715474e-06
3.83215493515206e-06
4.09318420162443e-06
4.27972056521931e-06
4.40768796868934e-06
4.49198377628395e-06
4.54532506123022e-06
4.57776808676565e-06
4.59674781570887e-06
4.60743658123249e-06
4.61323652747196e-06
4.61627170265371e-06
4.6178049281706e-06
4.61855319532213e-06
4.6189062255453e-06
4.61906724296605e-06
4.61913804909911e-06
4.6191675437374e-06
4.61917782587917e-06
4.61917722319929e-06
4.61916554665694e-06
4.61913397964173e-06
4.61905966487263e-06
4.61889250413879e-06
4.6185288310884e-06
4.61776273871307e-06
4.61620106993305e-06
4.61312318760651e-06
4.60726376394663e-06
4.59649981149105e-06
4.57743728154125e-06
4.54492280133398e-06
4.49155386099106e-06
4.40731920790901e-06
4.27955236423116e-06
4.09339779382168e-06
3.83294405521793e-06
3.4830584713644e-06
3.03177723468216e-06
2.47290554613174e-06
1.80832266992456e-06
1.04942185262529e-06
3.06949190476589e-09
1.16495403766335e-11
1.21259955943181e-11
3.20778491954201e-09
1.09851327375285e-06
1.89300598239508e-06
2.58851134729567e-06
3.17327664964733e-06
3.64542170323134e-06
4.0114540964817e-06
4.28388941462684e-06
4.47855474643718e-06
4.6120999743243e-06
4.70007962663422e-06
4.75576264764925e-06
4.7896387900037e-06
4.80946329502383e-06
4.82063202900148e-06
4.82669503618812e-06
4.82986942608376e-06
4.83147386340863e-06
4.83225737948616e-06
4.83262731332011e-06
4.83279619190147e-06
4.83287054068218e-06
4.832901563242e-06
4.83291242136876e-06
4.83291186277478e-06
4.83289972610241e-06
4.83286684323806e-06
4.8327894029712e-06
4.83261518938342e-06
4.83223612146029e-06
4.83143747366321e-06
4.82980917186268e-06
4.82659945174317e-06
4.82048816430985e-06
4.80926012466484e-06
4.7893736086186e-06
4.75545061794405e-06
4.69976522043495e-06
4.6118669877549e-06
4.4785295262894e-06
4.28423103204787e-06
4.0123266248081e-06
3.64694802911091e-06
3.17547967731971e-06
2.59125514428362e-06
1.89595386978814e-06
1.10111142556269e-06
3.22266927953859e-09
1.22262861039004e-11
1.26281151731489e-11
3.3413939297429e-09
1.14353657336521e-06
1.96911929593399e-06
2.69107445871539e-06
3.29760306641548e-06
3.78704936821087e-06
4.16635700924188e-06
4.44861475827628e-06
4.65028285081306e-06
4.7886358855226e-06
4.87979325907402e-06
4.93749817472554e-06
4.97261304252454e-06
4.99316863721447e-06
5.00475331882663e-06
5.01104464521073e-06
5.01434006718503e-06
5.0160065311979e-06
5.01682081456436e-06
5.01720553904385e-06
5.01738131647625e-06
5.01745878585329e-06
5.01749116122066e-06
5.01750253491584e-06
5.01750202451954e-06
5.01748949710986e-06
5.01745548597306e-06
5.01737536335947e-06
5.01719509688209e-06
5.0168028151633e-06
5.01597621579123e-06
5.01429068114894e-06
5.0109676748921e-06
5.00463988103193e-06
4.99301277162545e-06
4.97241751958703e-06
4.93728278388685e-06
4.87960425015259e-06
4.78855346617472e-06
4.65042201622033e-06
4.4491142516511e-06
4.16735286736005e-06
3.78863363408515e-06
3.29977407068411e-06
2.69369074906496e-06
1.97187252032834e-06
1.14594903257062e-06
3.3555996172511e-09
1.272599353952e-11
1.30579876725607e-11
3.45593122136138e-09
1.1821215681817e-06
2.03427977727712e-06
2.77881271131919e-06
3.40390289735679e-06
3.90809898738568e-06
4.29872335565197e-06
4.58935623204352e-06
4.79699797337091e-06
4.93945497338538e-06
5.03332713350906e-06
5.09276111078178e-06
5.12893650742718e-06
5.15011882274699e-06
5.16206057801431e-06
5.16854821313722e-06
5.1719478775211e-06
5.17366786583091e-06
5.1745087561855e-06
5.17490630324874e-06
5.17508807950081e-06
5.17516827262096e-06
5.17520183489723e-06
5.17521366589308e-06
5.17521320594635e-06
5.17520035059282e-06
5.17516538236194e-06
5.17508298194216e-06
5.17489757522033e-06
5.1744940703487e-06
5.17364372226007e-06
5.17190953923151e-06
5.16849019498839e-06
5.16197820696143e-06
5.15001146209958e-06
5.12881284853457e-06
5.09264629566098e-06
5.03327030191451e-06
4.93953432845836e-06
4.79731922519274e-06
4.59004019893999e-06
4.29988037746397e-06
3.90979179184135e-06
3.40610479814292e-06
2.78137274299857e-06
2.03690847436078e-06
1.18440056504639e-06
3.46961693335362e-09
1.31538961572631e-11
1.34213577286041e-11
3.5528829828904e-09
1.21478178312883e-06
2.08938933541398e-06
2.85297468489156e-06
3.49371912104285e-06
4.01035214489348e-06
4.41051963310055e-06
4.70821751183316e-06
4.92090127364517e-06
5.06682478839213e-06
5.16299215119779e-06
5.22388950836405e-06
5.26096355716248e-06
5.28267764380657e-06
5.29492282308157e-06
5.30157754233439e-06
5.30506608844567e-06
5.30683180387776e-06
5.30769547562555e-06
5.30810402974692e-06
5.3082909712832e-06
5.3083735187565e-06
5.30840811244615e-06
5.30842034525677e-06
5.30841993649655e-06
5.3084068096492e-06
5.30837103935625e-06
5.30828672754128e-06
5.30809700680452e-06
5.30768408054325e-06
5.3068137879719e-06
5.30503872821149e-06
5.30153839283398e-06
5.29487147592278e-06
5.28261893358528e-06
5.26091241926081e-06
5.22387705323719e-06
5.163071458006e-06
5.06707366743504e-06
4.92141837228747e-06
4.70910842648876e-06
4.4118717663145e-06
4.01220090401247e-06
3.49601275708231e-06
2.85554892911946e-06
2.09196409378194e-06
1.21698086925447e-06
3.56621984907266e-09
1.35158370288503e-11
1.37243248976352e-11
3.63383255727029e-09
1.24205752751053e-06
2.13538508709629e-06
2.91484620122299e-06
3.56863048117652e-06
4.09562323297376e-06
4.50374196655516e-06
4.80732914659253e-06
5.02421869024228e-06
5.17303621835306e-06
5.27112164000194e-06
5.33324331690621e-06
5.37107017846508e-06
5.39323037048764e-06
5.40573049096957e-06
5.41252583649957e-06
5.41608932987238e-06
5.41789368322482e-06
5.41877664916076e-06
5.4191945503966e-06
5.4193858922976e-06
5.41947045354315e-06
5.41950593435283e-06
5.41951851677564e-06
5.41951815877649e-06
5.4195048108749e-06
5.41946837798464e-06
5.41938248435157e-06
5.41918919223905e-06
5.41876846336325e-06
5.41788164364202e-06
5.41607268836684e-06
5.41250514855202e-06
5.40570959428793e-06
5.39321962254365e-06
5.37109096642353e-06
5.33333321216249e-06
5.27133859914144e-06
5.1734591975552e-06
5.02494148991958e-06
4.80844492523281e-06
4.50531812483384e-06
4.09767011435636e-06
3.5710715591556e-06
2.91750051029156e-06
2.13797288701079e-06
1.24422832291668e-06
3.64699183703308e-09
1.38179607213422e-11
1.39730460363093e-11
3.70038251227278e-09
1.26449112974465e-06
2.17319945012011e-06
2.96569864885133e-06
3.63019088037088e-06
4.16569221695871e-06
4.580344062213e-06
4.88877310191497e-06
5.10912312959081e-06
5.26032409656171e-06
5.35999093373357e-06
5.42312331386788e-06
5.46157250870703e-06
5.48410205490532e-06
5.49681361125376e-06
5.50372580052095e-06
5.50735169179302e-06
5.50918828497028e-06
5.51008739025482e-06
5.51051313263893e-06
5.51070817856684e-06
5.51079444219864e-06
5.51083067742778e-06
5.51084356087125e-06
5.51084325237613e-06
5.51082972828205e-06
5.51079275760895e-06
5.51070557700337e-06
5.51050937728155e-06
5.51008229170075e-06
5.50918199608205e-06
5.50734537731189e-06
5.50372293847498e-06
5.49682221057636e-06
5.48413796893812e-06
5.46166368130437e-06
5.4233141444215e-06
5.36034505305659e-06
5.26092300114306e-06
5.1100578597038e-06
4.89012707264776e-06
4.58216758806819e-06
4.16797292410005e-06
3.63282800797373e-06
2.96849165459501e-06
2.17586082124474e-06
1.26668097351646e-06
3.71352629987269e-09
1.40664267454189e-11
1.41734664463246e-11
3.75408381541884e-09
1.28260445163627e-06
2.20372401154993e-06
3.0067422503354e-06
3.67987458131185e-06
4.22224382195266e-06
4.64217200427328e-06
4.95451442720662e-06
5.17766395958527e-06
5.33079522879032e-06
5.43174443980249e-06
5.49569756510842e-06
5.53465292473964e-06
5.55748340050985e-06
5.57036755019705e-06
5.57737531550375e-06
5.58105236256458e-06
5.58291545278767e-06
5.5838278594934e-06
5.58426008489495e-06
5.58445820494504e-06
5.58454588819653e-06
5.58458275671999e-06
5.5845958963867e-06
5.58459563558954e-06
5.5845819751394e-06
5.58454457808661e-06
5.58445637350265e-06
5.58425785757359e-06
5.5838257024341e-06
5.58291464544179e-06
5.58105590489843e-06
5.57738950532155e-06
5.5704044535341e-06
5.55756428030844e-06
5.53481230083799e-06
5.4959869140517e-06
5.43223370944093e-06
5.33156966121339e-06
5.17881370704741e-06
4.95611564046232e-06
4.64426065699119e-06
4.22478711931876e-06
3.68274825270651e-06
3.00972386087879e-06
2.206511280458e-06
1.28485487498458e-06
3.76735858386114e-09
1.42671515898479e-11
1.43310864866493e-11
3.79637403202495e-09
1.296879260555e-06
2.2277780443057e-06
3.03908536238035e-06
3.71902847159004e-06
4.26681452691238e-06
4.69090738112577e-06
5.00634160914493e-06
5.23170542705972e-06
5.3863654977278e-06
5.48833188069308e-06
5.5529371175004e-06
5.59229539816967e-06
5.6153659171127e-06
5.62838805096293e-06
5.63547241538574e-06
5.63919057145526e-06
5.64107501782185e-06
5.64199818063256e-06
5.64243566828731e-06
5.64263629478687e-06
5.64272514199724e-06
5.64276253382672e-06
5.64277588870797e-06
5.6427756735214e-06
5.64276191215847e-06
5.64272418823725e-06
5.64263519440859e-06
5.6424348894356e-06
5.6419988107851e-06
5.64107940719734e-06
5.63920347099163e-06
5.63550282750645e-06
5.62845196218503e-06
5.61548987447033e-06
5.59252045141205e-06
5.5533219662887e-06
5.48895327950441e-06
5.38731342766491e-06
5.23307075517202e-06
5.00819539795187e-06
4.69327372732947e-06
4.269642348922e-06
3.72217081762392e-06
3.04229615282639e-06
2.23073448049683e-06
1.29922515053857e-06
3.80990662969247e-09
1.44255850493733e-11
1.44507673079431e-11
3.82852562258845e-09
1.30774078238054e-06
2.246082150953e-06
3.06370040423209e-06
3.748832081493e-06
4.30074813288975e-06
4.72801957103377e-06
5.04581649163402e-06
5.27287491728268e-06
5.428706990636e-06
5.53145467421476e-06
5.59656190144833e-06
5.63623110283754e-06
5.65948735238473e-06
5.67261656371887e-06
5.67976056058629e-06
5.68351083190191e-06
5.68541202610935e-06
5.68634365999814e-06
5.68678531212464e-06
5.68698793356195e-06
5.68707771379211e-06
5.68711552925661e-06
5.68712906198011e-06
5.68712889025897e-06
5.68711505975041e-06
5.68707709835712e-06
5.68698752594843e-06
5.68678590435697e-06
5.68634692785123e-06
5.68542133618231e-06
5.68353260294618e-06
5.67980638349019e-06
5.67270620198437e-06
5.65965249182233e-06
5.6365192329381e-06
5.59703900662803e-06
5.53220466211866e-06
5.42982535681979e-06
5.27445454680801e-06
5.04792517562616e-06
4.73067163359101e-06
4.3038760912884e-06
3.75226716200899e-06
3.06717165795427e-06
2.24924178044409e-06
1.31021006941884e-06
3.8424211770289e-09
1.45465237148506e-11
1.45365763255789e-11
3.851604599948e-09
1.31554451489264e-06
2.25923713644083e-06
3.08139653234913e-06
3.77026549207203e-06
4.32516006435042e-06
4.75472736820491e-06
5.07423396331949e-06
5.30252127346364e-06
5.45920538131765e-06
5.56252269338773e-06
5.62799709077395e-06
5.66789452636305e-06
5.69128765446768e-06
5.70449612194986e-06
5.71168446596619e-06
5.71545874325173e-06
5.717372526545e-06
5.71831056744398e-06
5.71875539136733e-06
5.7189595446385e-06
5.7190500484854e-06
5.71908819702897e-06
5.71910187354331e-06
5.7191017432696e-06
5.71908787247876e-06
5.71904975488118e-06
5.71895979516942e-06
5.71875728525717e-06
5.71831633929815e-06
5.71738651049009e-06
5.71548895032379e-06
5.71174496817595e-06
5.7046103231093e-06
5.69149223160933e-06
5.66824329460491e-06
5.62856331644014e-06
5.56339765574092e-06
5.46049065275149e-06
5.30431274705179e-06
5.07659758348977e-06
4.75766937948637e-06
4.32859815576985e-06
3.77400989241401e-06
3.08515067211955e-06
2.2626249729237e-06
1.31815820003229e-06
3.86594569454523e-09
1.46339617627859e-11
1.45916705077761e-11
3.86643912929351e-09
1.3205661750831e-06
2.26770789365975e-06
3.09279877792415e-06
3.78408480682189e-06
4.34091005089058e-06
4.77196958309652e-06
5.09259104087337e-06
5.32168280317649e-06
5.47892719397746e-06
5.58262103534115e-06
5.64833955082129e-06
5.68838971795136e-06
5.71187509893509e-06
5.72513739891965e-06
5.73235611752694e-06
5.73614698576057e-06
5.73806955440117e-06
5.73901211396804e-06
5.73945920129861e-06
5.73966446250142e-06
5.73975549822574e-06
5.73979389690304e-06
5.73980768603356e-06
5.73980759546321e-06
5.73979371116775e-06
5.73975551263079e-06
5.73966534256277e-06
5.73946233993478e-06
5.73902028062767e-06
5.73808801063261e-06
5.73618527215109e-06
5.73243069650389e-06
5.72527519580065e-06
5.7121176465921e-06
5.6887970361457e-06
5.64899213812982e-06
5.58361764815907e-06
5.48037584152589e-06
5.32368305851843e-06
5.0952080172046e-06
4.77520269480233e-06
4.34466337378432e-06
3.78814830893712e-06
3.09684993472042e-06
2.27134034395568e-06
1.32333851462501e-06
3.88128560137124e-09
1.46909769414891e-11
1.46182141186942e-11
3.87359728530281e-09
1.32299454493968e-06
2.27181192024192e-06
3.09833315336222e-06
3.7908045395902e-06
4.34858244982889e-06
4.78038383417831e-06
5.10156454947462e-06
5.33106417175046e-06
5.48859615436152e-06
5.59248601446711e-06
5.65833360061563e-06
5.69846590844578e-06
5.7220018249584e-06
5.73529419674925e-06
5.74253023675218e-06
5.74633077314821e-06
5.74825857921594e-06
5.74920389857339e-06
5.74965240501297e-06
5.74985838145292e-06
5.74994977231216e-06
5.74998834520531e-06
5.75000221871905e-06
5.75000216658268e-06
5.74998829384574e-06
5.74995008485186e-06
5.74985987074107e-06
5.74965674810723e-06
5.74921438261583e-06
5.74828136412305e-06
5.74637688285183e-06
5.74261845568275e-06
5.73545487888123e-06
5.72228124651027e-06
5.69893017895068e-06
5.65907036830599e-06
5.59360151762678e-06
5.49020500950539e-06
5.33326998221288e-06
5.10443219611579e-06
4.78390668690496e-06
4.35265179434108e-06
3.79519068285522e-06
3.10268764351847e-06
2.27569714728918e-06
1.32593322905736e-06
3.8889860451433e-09
1.4719648598522e-11
1.4617325177296e-11
3.87337241108304e-09
1.3229267912529e-06
2.27171192343985e-06
3.09821718505092e-06
3.79068661529761e-06
4.3484740328129e-06
4.78029337013676e-06
5.10149720188332e-06
5.33102192698894e-06
5.48857831041202e-06
5.59248994304213e-06
5.65835559473934e-06
5.69850196589295e-06
5.72204820838133e-06
5.73534776603195e-06
5.74258856550026e-06
5.74639211463009e-06
5.7483217513806e-06
5.74926814411209e-06
5.74971726159409e-06
5.74992357827382e-06
5.75001515597075e-06
5.75005383107154e-06
5.75006776242325e-06
5.750067747888e-06
5.75005391125905e-06
5.75001576065955e-06
5.74992566496946e-06
5.74972278626228e-06
5.74928090193449e-06
5.74834878377183e-06
5.74644590094123e-06
5.74269016866267e-06
5.73553090535484e-06
5.72236381831053e-06
5.69902214198048e-06
5.65917502362329e-06
5.59372224226308e-06
5.49034463657945e-06
5.3334299894114e-06
5.10461183087738e-06
4.78410221003188e-06
4.35285601477262e-06
3.79539286774204e-06
3.1028737394352e-06
2.27585010494406e-06
1.32603313602079e-06
3.88931743419824e-09
1.47210045896181e-11
1.45890529915332e-11
3.8657770593159e-09
1.32036648675152e-06
2.26741249583126e-06
3.09245541591428e-06
3.7837349307888e-06
4.34058781946057e-06
4.77170036584198e-06
5.09239050456137e-06
5.3215571292906e-06
5.47887448018697e-06
5.58263354610613e-06
5.6484062741016e-06
5.68849868732266e-06
5.71201511582004e-06
5.7252990375603e-06
5.73253208519396e-06
5.73633202752779e-06
5.73826011163527e-06
5.73920590554358e-06
5.73965483409341e-06
5.7398611203323e-06
5.73995271873724e-06
5.7399914250798e-06
5.74000538832732e-06
5.74000541099226e-06
5.73999163551459e-06
5.7399536133552e-06
5.73986380097003e-06
5.7396615347653e-06
5.73922092741776e-06
5.73829137305945e-06
5.73639345380582e-06
5.73264699931446e-06
5.72550449041756e-06
5.71236664210176e-06
5.68907427531616e-06
5.64930750882881e-06
5.58398123008601e-06
5.48079603017911e-06
5.32416412007018e-06
5.0957474683939e-06
4.77578906263791e-06
4.34527485983243e-06
3.78875261067107e-06
3.09740502381966e-06
2.27179556131316e-06
1.32363513088471e-06
3.88226742849057e-09
1.46949892110791e-11
1.4532383829491e-11
3.85054431810176e-09
1.31522385541542e-06
2.25876031231258e-06
3.08083952306483e-06
3.76969539743931e-06
4.32463308496151e-06
4.75428591056882e-06
5.07390473041304e-06
5.30231530889327e-06
5.45912019423544e-06
5.56254590496964e-06
5.62811067140463e-06
5.66807869244095e-06
5.69152379070568e-06
5.70476850322499e-06
5.71198089455434e-06
5.71577041332702e-06
5.71769346643595e-06
5.71863694523088e-06
5.71908486506388e-06
5.71929074149682e-06
5.71938219073529e-06
5.71942085582532e-06
5.71943482484765e-06
5.7194348848463e-06
5.71942119683894e-06
5.71938337690572e-06
5.71929402088724e-06
5.71909275298833e-06
5.71865425386468e-06
5.71772899788277e-06
5.71583954624542e-06
5.71210921603995e-06
5.70499638762477e-06
5.69191133638274e-06
5.66870968987831e-06
5.62909342546259e-06
5.56400810075525e-06
5.46119507464084e-06
5.30511769631979e-06
5.07749816975495e-06
4.75864563623506e-06
4.3296130171852e-06
3.77500920377621e-06
3.08606487363347e-06
2.26337133189619e-06
1.31864221626929e-06
3.8675415257103e-09
1.46404709118008e-11
1.44452637420681e-11
3.82713403238641e-09
1.30731790455261e-06
2.24544771323479e-06
3.06295308037363e-06