/*--------------------------------*- C++ -*----------------------------------*\
  =========                 |
  \\      /  F ield         | OpenFOAM: The Open Source CFD Toolbox
   \\    /   O peration     | Website:  https://openfoam.org
    \\  /    A nd           | Version:  10
     \\/     M anipulation  |
\*---------------------------------------------------------------------------*/
FoamFile
{
    format      ascii;
    class       volScalarField;
    location    "10";
    object      k;
}
// * * * * * * * * * * * * * * * * * * * * * * * * * * * * * * * * * * * * * //

dimensions      [0 2 -2 0 0 0 0];

internalField   nonuniform List<scalar> 
2500
(
4.95859562130565e-10
9.78645119781317e-09
4.20953079858682e-08
7.39011399730433e-08
1.02668808248459e-07
1.27438859928637e-07
1.47787414603432e-07
1.63744838253989e-07
1.75697374007109e-07
1.84254421509868e-07
1.90114501390195e-07
1.93956787871721e-07
1.96371168915185e-07
1.97826621035907e-07
1.98669229963748e-07
1.9913821063427e-07
1.99389424466768e-07
1.99519062363932e-07
1.99583571271412e-07
1.99614547400575e-07
1.99628906400072e-07
1.99635328168643e-07
1.99638087988951e-07
1.99639203044775e-07
1.99639566676386e-07
1.99639500121503e-07
1.99638970690655e-07
1.99637580383785e-07
1.99634312795473e-07
1.99626945164385e-07
1.9961086941878e-07
1.99576904543481e-07
1.995074523015e-07
1.99370117390935e-07
1.99107750212149e-07
1.98623989726282e-07
1.97764032308801e-07
1.96291830799329e-07
1.93867383844829e-07
1.90030968344464e-07
1.84204194972955e-07
1.75719013963303e-07
1.63883269880623e-07
1.48083691778065e-07
1.2791473907746e-07
1.03307822755534e-07
7.46275602627943e-08
4.27451243858902e-08
1.00354410156595e-08
5.15266632041189e-10
1.22757082331049e-08
2.82374731219618e-07
1.23960734119595e-06
2.17716387950731e-06
3.02562751317656e-06
3.75708144457779e-06
4.35893348133715e-06
4.83182863138415e-06
5.18684493375537e-06
5.44166189526547e-06
5.61666392339181e-06
5.73176307783147e-06
5.80432810030515e-06
5.84822599380178e-06
5.87373364724774e-06
5.88798521356845e-06
5.89564947364501e-06
5.89962071416004e-06
5.90160509734646e-06
5.90256204643305e-06
5.90300757990913e-06
5.90320773744292e-06
5.90329416782268e-06
5.90332926701444e-06
5.90334078629625e-06
5.9033387460826e-06
5.90332214810767e-06
5.90327863256568e-06
5.90317672414468e-06
5.90294785016977e-06
5.90245043834743e-06
5.90140360908888e-06
5.89927133254285e-06
5.89507107975782e-06
5.8870769457194e-06
5.87239121316869e-06
5.84637832399316e-06
5.80199937577365e-06
5.72915739462396e-06
5.61425589849167e-06
5.44025885493868e-06
5.1875719176239e-06
4.83598625453323e-06
4.36769876719858e-06
3.77106132193703e-06
3.0443140732111e-06
2.19833068635015e-06
1.25848022198006e-06
2.8943561258739e-07
1.27399774200844e-08
4.35122254300263e-08
1.26744202926761e-06
6.30651011883418e-06
1.10665117470239e-05
1.53532510859415e-05
1.90390320769331e-05
2.20664622162e-05
2.44430363571687e-05
2.62269512583556e-05
2.75080859937288e-05
2.83889482426801e-05
2.89692427882105e-05
2.93358379318413e-05
2.95581291366224e-05
2.96876310328092e-05
2.97601883624751e-05
2.97993239764038e-05
2.98196648967022e-05
2.98298617351792e-05
2.98347954837218e-05
2.98371005234727e-05
2.98381398686649e-05
2.98385904387091e-05
2.98387742294693e-05
2.98388349682529e-05
2.98388247787815e-05
2.98387387323551e-05
2.98385131414772e-05
2.98379859804594e-05
2.98368050628715e-05
2.98342452083873e-05
2.98288716448862e-05
2.98179538544682e-05
2.97965008603147e-05
2.97557698196401e-05
2.96811216906691e-05
2.95491988562973e-05
2.93246187663872e-05
2.89567309679589e-05
2.8377430719756e-05
2.75014291130424e-05
2.62305232637524e-05
2.44630305304761e-05
2.21084781518272e-05
1.91059493830343e-05
1.54426051873723e-05
1.11675449314529e-05
6.39617778676144e-06
1.2965669704323e-06
4.49256119736901e-08
7.69563695082564e-08
2.25730226553951e-06
1.12857401189444e-05
1.97565762979159e-05
2.73517214199827e-05
3.38592609097877e-05
3.91895558273052e-05
4.33650798895244e-05
4.64946541498334e-05
4.87400509792732e-05
5.02831395010207e-05
5.12995640839108e-05
5.1941781992356e-05
5.23313508105736e-05
5.25584313710871e-05
5.26857486610855e-05
5.27544761634206e-05
5.27902302048639e-05
5.28081716388595e-05
5.28168621869641e-05
5.28209273110253e-05
5.28227627560409e-05
5.28235597126312e-05
5.28238855381473e-05
5.28239939181797e-05
5.28239772416172e-05
5.28238276739592e-05
5.28234342338763e-05
5.28225139621004e-05
5.28204512397882e-05
5.28159777900752e-05
5.28065833292643e-05
5.27874890016679e-05
5.27499575331867e-05
5.26786803668913e-05
5.25480199513835e-05
5.23170609254354e-05
5.19238037655298e-05
5.12794446537109e-05
5.02644519499622e-05
4.87288461549678e-05
4.64993383695791e-05
4.33953519616528e-05
3.92541713654524e-05
3.39626562124518e-05
2.74897998834523e-05
1.99119638864829e-05
1.14218155137443e-05
2.30031926891524e-06
7.90013995980821e-08
1.10028143296886e-07
3.22904853741042e-06
1.61257669835179e-05
2.81648156007823e-05
3.89187895036547e-05
4.81046533568573e-05
5.56105495838923e-05
6.14796111789506e-05
6.58728213392586e-05
6.90222377453787e-05
7.11856314103185e-05
7.26104603903464e-05
7.35108276869639e-05
7.40571578451499e-05
7.43757619208547e-05
7.45544985941185e-05
7.46510499531269e-05
7.47013185441189e-05
7.4726565746065e-05
7.47388071284978e-05
7.47445394911561e-05
7.47471309455709e-05
7.47482578605065e-05
7.47487196019672e-05
7.47488741494461e-05
7.47488524642056e-05
7.4748644682664e-05
7.47480961424202e-05
7.47468117334917e-05
7.47439309157393e-05
7.47376796775952e-05
7.47245448982362e-05
7.46978356055638e-05
7.46453138422594e-05
7.45455303226256e-05
7.4362552523776e-05
7.40390171964277e-05
7.34879673191411e-05
7.25847795870631e-05
7.11615476333656e-05
6.90072445956765e-05
6.58773310710367e-05
6.15156264635722e-05
5.56888715628825e-05
4.82306539407877e-05
3.90871207935929e-05
2.83535314628747e-05
1.62895649667011e-05
3.2805485829645e-06
1.12491598317649e-07
1.42018944425611e-07
4.16826800543997e-06
2.07763892985476e-05
3.62096802818979e-05
4.99491301715305e-05
6.16530289230748e-05
7.11959570362199e-05
7.8645897923368e-05
8.42162250448104e-05
8.82066799866775e-05
9.09467998571643e-05
9.27513035127292e-05
9.38917382611958e-05
9.45839462586752e-05
9.49877997133291e-05
9.52144870870263e-05
9.53370211896179e-05
9.54008652786923e-05
9.5432957720144e-05
9.54485327423137e-05
9.54558339049349e-05
9.54591386064017e-05
9.54605778304377e-05
9.54611688285535e-05
9.54613678040182e-05
9.54613424304327e-05
9.54610815428118e-05
9.54603903341237e-05
9.54587702767884e-05
9.54551344516298e-05
9.54472407703197e-05
9.5430646938664e-05
9.53968886699448e-05
9.5330478825935e-05
9.52042646031567e-05
9.49727456046288e-05
9.4563263239945e-05
9.38656360315066e-05
9.27218769713557e-05
9.09189534012722e-05
8.81887432665291e-05
8.42197668509938e-05
7.86842328283807e-05
7.12810196669411e-05
6.17906476100085e-05
5.01331343436948e-05
3.6415493641903e-05
2.09542862756384e-05
4.22456609204146e-06
1.44755648869918e-07
1.72536021124777e-07
5.06435858467715e-06
2.51944501462858e-05
4.3822516922464e-05
6.03555263838602e-05
7.44045923439803e-05
8.5837953158763e-05
9.47512285909451e-05
0.000101409273054996
0.000106176106714951
0.000109448386694936
0.000111603241531777
0.000112965295984852
0.000113792269819335
0.000114274955983313
0.000114546037833061
0.00011469266116926
0.000114769111341616
0.000114807571525694
0.000114826253869803
0.000114835020683636
0.000114838993539127
0.000114840726319915
0.000114841439415982
0.000114841680848152
0.000114841652964265
0.000114841343909543
0.000114840522232328
0.00011483859467145
0.000114834266473135
0.000114824865294046
0.000114805093914955
0.000114764855087823
0.000114685667558836
0.000114535119632293
0.000114258884445176
0.000113770186657399
0.000112937398731233
0.000111571702452796
0.00010941831495945
0.000106156181370261
0.000101411532469435
9.4789493521268e-05
8.59245523523457e-05
7.45454370394461e-05
6.05440222275508e-05
4.4033115813039e-05
2.53763875544275e-05
5.12279318655795e-06
1.75438614557726e-07
2.01288653272623e-07
5.90902125942061e-06
2.93443688485084e-05
5.09480349775779e-05
7.00692111884021e-05
8.62820881692301e-05
9.94543406052166e-05
0.000109710735313786
0.000117365743714602
0.000122843635209927
0.000126603180957938
0.000129078884597777
0.000130643999041434
0.000131594548853992
0.000132149595073184
0.000132461475692905
0.000132630268116859
0.000132718337908373
0.000132762677994404
0.000132784235384945
0.000132794361436651
0.000132798955647427
0.00013280096238092
0.000132801790015196
0.000132802071741642
0.000132802042370262
0.000132801689890391
0.00013280074965926
0.000132798542234091
0.000132793583412641
0.00013278280821683
0.000132760138559074
0.000132713984565089
0.000132623126460273
0.000132450340103534
0.000132133218039854
0.000131572056264537
0.000130615578327715
0.000129046703044525
0.000126572340454738
0.000122822789099303
0.000117366863820708
0.000109747515227631
9.95389199963646e-05
8.64201684429239e-05
7.02540946019545e-05
5.11544929889892e-05
2.95231041261998e-05
5.96765239533718e-06
2.04275497339413e-07
2.28056695227314e-07
6.69586581376516e-06
3.3198705269807e-05
5.75449536201648e-05
7.90403995041386e-05
9.72311492210836e-05
0.000111988713780528
0.000123467408262118
0.000132028693904346
0.000138152610170881
0.000142354816667125
0.000145122079480228
0.000146871823837053
0.000147934826587613
0.000148555788137353
0.000148904879403983
0.000149093919627038
0.000149192618845877
0.000149242347356045
0.000149266544805798
0.000149277921921093
0.000149283089643383
0.000149285350143127
0.000149286284445001
0.000149286604135313
0.000149286574157986
0.000149286182774153
0.000149285135543709
0.000149282675181987
0.000149277146086913
0.000149265127673412
0.000149239834041299
0.000149188321407137
0.000149086884571324
0.000148893929727901
0.000148539709663027
0.000147912773529168
0.000146843986849753
0.000145090571319592
0.00014232458404114
0.000138132007720157
0.000132029228796013
0.000123502170648789
0.000112069210453692
9.73626409141682e-05
7.92163043220287e-05
5.77412737031557e-05
3.33693242360124e-05
6.75332044001623e-06
2.31066321931466e-07
2.52684186573556e-07
7.42032184734247e-06
3.67384260793814e-05
6.35861767793172e-05
8.7238223079761e-05
0.000107219968322638
0.000123409900742102
0.000135991361283789
0.000145369600756563
0.000152075663540413
0.000156676781029947
0.000159706886488116
0.000161623183660811
0.000162787717542369
0.000163468256007344
0.000163851021591474
0.00016405841127602
0.000164166758676579
0.000164221386924018
0.000164247989871615
0.000164260509583891
0.000164266202583601
0.000164268696352738
0.000164269729227558
0.000164270084418251
0.000164270054593379
0.000164269628589575
0.000164268485478601
0.000164265798196249
0.000164259757277047
0.000164246622590293
0.000164218971709774
0.00016416264252625
0.000164051692153045
0.000163840591073813
0.000163452979202202
0.000162766819708581
0.000161596881494001
0.000159677217400028
0.000156648445401125
0.000152056534993879
0.000145370446358472
0.000136024330649324
0.000123485545546383
0.000107342925727443
8.74021420372539e-05
6.37688495686872e-05
3.68979548391602e-05
7.47569599123651e-06
2.55672195822806e-07
2.75076899794182e-07
8.079595149881e-06
3.99528139592197e-05
6.90584045302475e-05
9.46499760356322e-05
0.000116238205762336
0.000133710598858512
0.00014727826771398
0.00015738665949201
0.000164612921431689
0.00016957056365378
0.000172835693232802
0.000174901021369452
0.000176156488112892
0.000176890443062357
0.00017730343907326
0.000177527325110803
0.000177644360187636
0.000177703408301208
0.000177732185577251
0.000177745740531383
0.000177751910819454
0.000177754617322977
0.000177755740561002
0.000177756128685669
0.000177756099633066
0.000177755643065169
0.000177754414689607
0.00017775152540499
0.000177745028747784
0.000177730899793172
0.000177701148398227
0.000177640525183038
0.000177521089324166
0.000177293795982749
0.000176876376975004
0.000176137335952554
0.000174877055969691
0.000172808879790884
0.00016954531338232
0.000164596522452771
0.000157388968954598
0.000147310277330519
0.000133781686594884
0.000116352240534448
9.48008582250349e-05
6.9225974486377e-05
4.00998757970987e-05
8.13237734681352e-06
2.78013603494876e-07
2.95199212469245e-07
8.67258609295256e-06
4.28390352461711e-05
7.39612227804259e-05
0.000101279732921907
0.000124295207365376
0.000142905284710598
0.000157347048141967
0.000168102318702107
0.000175789438633013
0.0001810630265545
0.000184536544594803
0.000186734115257643
0.00018807034841016
0.000188851801195933
0.000189291712569
0.000189530307150405
0.000189655100836284
0.000189718103268806
0.000189748829832869
0.000189763315095912
0.000189769915531587
0.000189772814462957
0.000189774019858056
0.000189774438274616
0.000189774410487871
0.00018977392716809
0.000189772623580933
0.000189769555947795
0.00018976265686068
0.000189747649736063
0.000189716042415458
0.000189651623530544
0.000189524683738055
0.000189283065471621
0.000188839267842256
0.000188053415110223
0.000186713145902358
0.000184513454061263
0.000181041933349982
0.000175777005185803
0.000168107410295608
0.000157379381103891
0.000142972931125654
0.00012440115500635
0.000101418076845506
7.4113866631626e-05
4.29735321065918e-05
8.72258826689867e-06
2.98067479314815e-07
3.13069103145884e-07
9.19974981346302e-06
4.54014085533182e-05
7.83057502890651e-05
0.00010714644068152
0.000131417647092385
0.000151027517596097
0.00016623693094946
0.000177560173608264
0.000185651980431242
0.000191203113933265
0.00019485980728397
0.000197173716111495
0.00019858107312994
0.000199404401492833
0.000199868073348538
0.000200119671388573
0.000200251335417632
0.00020031784581002
0.000200350305192603
0.000200365619437878
0.000200372604283081
0.000200375675815043
0.00020037695527738
0.000200377401311828
0.00020037737516819
0.000200376868645821
0.000200375499284855
0.000200372275549762
0.000200365024209907
0.000200349248282699
0.00020031601564988
0.000200248271403449
0.000200114754760558
0.000199860576618119
0.00019939364318493
0.00019856672294369
0.000197156266237009
0.000194841157700395
0.000191187117149726
0.000185644683734687
0.000177569438716457
0.000166271161823854
0.000151093418590916
0.000131517239461498
0.000107273900171259
7.84448760186152e-05
4.55242219053822e-05
9.24704121521563e-06
3.15862224186532e-07
3.28751305919542e-07
9.66290174618941e-06
4.76504340302544e-05
8.21129414738213e-05
0.000112281606936709
0.000137646730627331
0.00015812678076705
0.000174004033741212
0.000185821367473417
0.000194265303008785
0.000200058053562116
0.000203874321162748
0.000206289667802555
0.00020775910390975
0.000208619026139265
0.000209103489374365
0.000209366482871081
0.000209504177576083
0.000209573772854298
0.000209607759240199
0.000209623805772784
0.000209631131181093
0.000209634356192393
0.000209635701851928
0.00020963617284303
0.000209636148613247
0.000209635622163306
0.000209634195809857
0.000209630836699749
0.000209623279875696
0.000209606837134903
0.000209572194382834
0.00020950156394015
0.000209362336723288
0.000209097248982897
0.000208610213254411
0.000207747601178585
0.000206276132930563
0.000203860683189231
0.000200047947282284
0.000194264208911613
0.000185836185485331
0.000174041880714154
0.000158192987045061
0.000137742290093086
0.000112400624997386
8.22408177086772e-05
4.77631474615572e-05
9.70774567796368e-06
3.31470867418105e-07
3.42349061168334e-07
1.00649816277876e-05
4.96016541469811e-05
8.54116561233426e-05
0.000116726721641319
0.000143035113485144
0.000164265024485183
0.000180717636628845
0.000192960676682965
0.000201708110959835
0.000207709230316824
0.000211663219147903
0.000214166194031196
0.000215689316257841
0.000216580923923874
0.000217083414447287
0.000217356303436081
0.000217499243789146
0.000217571527390049
0.000217606847287197
0.000217623534881329
0.000217631159306071
0.000217634519575436
0.000217635923872012
0.000217636417211467
0.000217636395072949
0.000217635851690854
0.000217634376442165
0.000217630901087464
0.000217623081948291
0.000217606066555235
0.000217570212445464
0.000217497101647392
0.000217352964813647
0.000217078494031086
0.000216574163181473
0.000215680835357363
0.000214156851347308
0.000211655020784813
0.000207705655311283
0.000201714147260935
0.000192982342292923
0.000180760832114716
0.000164333742165995
0.00014312928109808
0.000116840204548476
8.55310815274398e-05
4.97063031689215e-05
1.01077763639352e-05
3.45002882406684e-07
3.53995022163977e-07
1.0409792162545e-05
5.12744193604529e-05
8.82366083625447e-05
0.000120530550318458
0.000147643689174717
0.000169513078338472
0.000186456323174934
0.000199062461196919
0.000208068877728338
0.000214247920433315
0.000218319606083267
0.000220897542755436
0.000222466643284557
0.000223385421965071
0.000223903393219155
0.000224184793105759
0.000224332252877381
0.000224406857032647
0.000224443330487804
0.000224460574014955
0.000224468458525311
0.000224471936886908
0.000224473392644554
0.000224473905811938
0.000224473885861925
0.000224473328263371
0.000224471811522802
0.000224468237420025
0.00022446019543872
0.000224442693492688
0.000224405809810014
0.000224330589961574
0.000224182276579921
0.000223899820390709
0.000223380765217444
0.000222461279603111
0.000220892562670073
0.000218317141020691
0.000214251362436645
0.000208082811941154
0.000199092128061548
0.000186506508601954
0.000169586503061378
0.000147739195723613
0.00012064159106069
8.83506289534908e-05
5.13732742551927e-05
1.04510179062104e-05
3.56595236997304e-07
3.63841882029609e-07
1.07017286095008e-05
5.26906288611846e-05
9.0626301050383e-05
0.000123746429346575
0.000151538394638967
0.000173947091976586
0.00019130415680297
0.000204216654421139
0.000213441707422573
0.000219771067957615
0.00022394228004023
0.000226583673023767
0.000228191741723745
0.000229133579604198
0.000229664708267844
0.000229953353464415
0.000230104667449234
0.000230181254495101
0.00023021871583656
0.000230236436672999
0.000230244545171511
0.000230248125628288
0.000230249626112961
0.000230250156705292
0.000230250138975564
0.000230249569604908
0.000230248018085694
0.000230244361101479
0.000230236132056502
0.000230218221580608
0.000230180473064134
0.000230103480712633
0.000229951655374258
0.000229662481110333
0.000229131033077607
0.000228189523643116
0.000226583132790139
0.000223945719936342
0.000219781862965955
0.000213464136318567
0.000204255297380699
0.000191362804833114
0.000174027280806278
0.000151637879685215
0.000123858085754945
9.07379804908003e-05
5.27860150179234e-05
1.0741902105528e-05
3.66403238124778e-07
3.72053219970978e-07
1.09455136908818e-05
5.38735071619666e-05
9.26210366173289e-05
0.000126429674867665
0.000154787158961687
0.00017764514070316
0.000195347036794314
0.000208514942220859
0.000217922391720107
0.000224377259851758
0.000228631654330508
0.000231326143655584
0.000232966860398048
0.000233928045036883
0.000234470230042936
0.000234764973959844
0.000234919538285437
0.000234997800998798
0.000235036099101726
0.000235054225310281
0.000235062524647424
0.000235066192439452
0.000235067731397803
0.000235068277152695
0.000235068261624728
0.000235067682667709
0.000235066102413483
0.000235062376829985
0.00023505399290363
0.000235035744047944
0.000234997278789472
0.000234918816470608
0.000234764076633203
0.000234469323662752
0.000233927578852198
0.000232967762064116
0.000231330042808759
0.000228641064802113
0.000224395606316805
0.000217953742710489
0.000208563338419088
0.000195415401642724
0.000177733922814027
0.000154893039037657
0.000126544803742109
9.27332810378677e-05
5.39676649366118e-05
1.09851515111929e-05
3.74591648458296e-07
3.78794970101023e-07
1.11459495456942e-05
5.48464655811518e-05
9.42610771282929e-05
0.000128635194253047
0.000157457095714882
0.000180684104697157
0.000198669348899564
0.000212047250722292
0.000221604784828949
0.000228163025025856
0.000232486007042283
0.000235224331571383
0.000236892039543402
0.000237869243462504
0.000238420598673797
0.000238720410237063
0.000238877680834033
0.000238957341828889
0.000238996339916513
0.000239014806206455
0.000239023266192615
0.000239027007819757
0.000239028579498527
0.000239029138309261
0.000239029124928505
0.000239028538330004
0.000239026934751862
0.000239023153351611
0.000239014643320424
0.000238996118770239
0.000238957069052689
0.000238877406947799
0.000238720286097963
0.000238420971663983
0.000237870801210097
0.000236895994094445
0.000235232608719853
0.000232501366732114
0.000228189002112284
0.000221645328121096
0.000212105978288642
0.000198748443086935
0.000180783028782185
0.000157571479256597
0.000128756338906366
9.43765123689242e-05
5.49414489639584e-05
1.11855403222906e-05
3.81326450828869e-07
3.84227799237487e-07
1.13076951500558e-05
5.56320833810612e-05
9.5585004446897e-05
0.000130415361904182
0.000159612008507024
0.000183136897220994
0.00020135099030681
0.000214898625926377
0.000224577581918685
0.00023121954439182
0.000235598146332891
0.00023837206874594
0.000240061730428456
0.000241051986467695
0.000241610827517521
0.000241914784473831
0.000242074273838086
0.000242155084083528
0.000242194659091227
0.000242213406568113
0.000242221999887838
0.000242225803088056
0.0002422274022347
0.000242227972158639
0.000242227960846749
0.000242227368334201
0.000242225746262974
0.000242221920450329
0.000242213309959634
0.000242194565530325
0.000242155049065521
0.000242074427484444
0.000241915399947462
0.000241612428174364
0.000241055494573168
0.000240068643256673
0.000238384619056446
0.000235619368065265
0.000231253134862471
0.000224627451418348
0.000214968077438749
0.000201441584159257
0.00018324721095244
0.000159736651959922
0.000130544687137693
9.5705900310543e-05
5.57296940925473e-05
1.13476802741195e-05
3.86767517104022e-07
3.88500567308617e-07
1.14350744434459e-05
5.62512300205436e-05
9.66283111699601e-05
0.000131818196120788
0.000161310250825437
0.000185070086242668
0.000203464815999223
0.000217146554178565
0.000226921551573427
0.000233629823573825
0.000238052543862349
0.000240854750662505
0.0002425618884617
0.000243562556028419
0.000244127381944525
0.00024443466127925
0.000244595933689248
0.000244677670227865
0.00024471771176691
0.000244736687486923
0.00024474538952056
0.000244749243205971
0.000244750865050344
0.000244751444308952
0.000244751434975389
0.000244750838085929
0.000244749201837315
0.000244745341792442
0.000244736653704799
0.000244717739099361
0.000244677860613981
0.000244596493197634
0.000244435980383716
0.000244130154049046
0.000243567932592
0.000242571649988451
0.000240871443209102
0.00023807949660044
0.000233670939370576
0.000226980771723
0.000217226960966718
0.000203567454600815
0.000185192741025138
0.000161446547854984
0.000131957461873796
9.67565445114616e-05
5.63529814169366e-05
1.14758360938363e-05
3.91062328639384e-07
3.91744937227883e-07
1.15319173506663e-05
5.67223370575755e-05
9.74222334556878e-05
0.000132885849565787
0.000162602953729593
0.000186541923942797
0.000205074521824706
0.000218858739579207
0.000228707238986894
0.000235466345496293
0.000239922953960583
0.000242746934121799
0.00024446755781462
0.000245476281272131
0.00024604575157412
0.000246355617410718
0.000246518282789831
0.000246600745750651
0.000246641154714968
0.000246660311065161
0.000246669099627423
0.000246672993781733
0.000246674634000899
0.00024667522097326
0.000246675213524979
0.000246674613636403
0.000246672967087681
0.000246669081947485
0.000246660336752835
0.000246641296455812
0.000246601149568535
0.000246519227093584
0.000246357604946969
0.000246049639570868
0.000245483444079123
0.000244480055255126
0.000242767628223471
0.000239955484158514
0.000235514853843007
0.000228775754306428
0.000218950202263391
0.000205189553169976
0.000186677596931397
0.000162751947918169
0.000133036412738502
9.75592801566701e-05
5.68294406701143e-05
1.15737722291404e-05
3.94340793999598e-07
3.94071118796544e-07
1.16014335366721e-05
5.70608185260149e-05
9.79928222703779e-05
0.000133653407777295
0.000163532614375611
0.00018760077616724
0.000206232955849563
0.000220091329703611
0.000229993131229275
0.000236789194214499
0.000241270509964962
0.00024411041590525
0.000245840939115262
0.000246855599595167
0.000247428507583141
0.000247740296949545
0.0002479040035725
0.000247987012576961
0.000248027699441273
0.000248046993366127
0.000248055848370696
0.000248059773911411
0.000248061428577663
0.000248062021786856
0.000248062016136327
0.000248061414500529
0.00024805976117654
0.000248055859237306
0.000248047075512276
0.0002480279497914
0.000247987619120759
0.000247905313783026
0.00024774292119037
0.000247433460978154
0.000246864472984867
0.00024585606669256
0.000244134975545444
0.000241308460841896
0.000236844941959317
0.000230070835136548
0.000220193850066289
0.000206360563519148
0.00018774990096219
0.000163695025101993
0.000133816240942727
9.81397672920201e-05
5.71741852900444e-05
1.16446304143094e-05
3.96711135409255e-07
3.95564670591616e-07
1.16461169704478e-05
5.72786311409871e-05
9.83602384079988e-05
0.000134147976381929
0.000164132022675179
0.000188283926809929
0.000206980831469747
0.000220887562167052
0.000230824256565924
0.000237644621653352
0.000242142269244128
0.000244992763728087
0.000246729911617908
0.000247748573534745
0.000248323816488374
0.000248636923341485
0.00024880134959049
0.000248884739655921
0.0002489256225156
0.000248945014614779
0.00024895391767539
0.000248957866286042
0.000248959531801721
0.000248960129895581
0.000248960125967157
0.000248959523745586
0.000248957866910855
0.00024895395584744
0.000248945150750928
0.000248925976738739
0.000248885540182017
0.000248803010235821
0.000248640158152284
0.000248329793331397
0.000247759093869165
0.000246747578758754
0.000245021069244638
0.000242185496625722
0.00023770745572415
0.000230911016237623
0.000221001071678721
0.000207121065420521
0.000188446724555112
0.000164308274225202
0.000134323692461487
9.85177933882832e-05
5.7398879426075e-05
1.16908360929535e-05
3.98256762826744e-07
3.96284253525505e-07
1.16676785213146e-05
5.73839622292552e-05
9.85382516203037e-05
0.000134388031456113
0.000164423493033215
0.000188616719390836
0.000207345802135483
0.000221276790805645
0.000231231176251567
0.000238064015710997
0.000242570165661059
0.000245426258611199
0.000247166969367234
0.000248187823268796
0.000248764370589423
0.000249078228758705
0.000249243074364187
0.000249326691602751
0.000249367694168079
0.000249387147820907
0.000249396081904792
0.000249400045919332
0.00024940171899157
0.000249402320745517
0.000249402318484139
0.000249401716763887
0.000249400059475527
0.000249396146501628
0.000249387336199587
0.000249368148906089
0.000249327679882155
0.000249245074340313
0.000249082055193072
0.000248771340064423
0.000248199942983009
0.000247187106775381
0.000245458215394003
0.000242618549829709
0.000238133798676586
0.000231326851736181
0.000221401172971132
0.00020749860340609
0.000188793224359733
0.000164613738925717
0.000134576904416747
9.87067706225496e-05
5.75114255966077e-05
1.17140310704064e-05
3.99034034672409e-07
3.96260171752334e-07
1.16670016745239e-05
5.73810259417971e-05
9.85339186191403e-05
0.000134383007282202
0.000164418385343166
0.000188612025136603
0.00020734188740193
0.000221273879343583
0.000231229354043998
0.00023806325217132
0.000242570346687039
0.00024542722334297
0.000247168544162158
0.000248189845990461
0.000248766705018012
0.000249080769639539
0.000249245745927472
0.000249329442574287
0.000249370491698263
0.000249389971855481
0.00024939892069742
0.000249402892816088
0.000249404570321584
0.000249405174584239
0.000249405173953784
0.000249404573799664
0.000249402919044047
0.000249399011206392
0.000249390211484114
0.000249371045059911
0.000249330615085393
0.000249248078871176
0.000249085176605783
0.000248774648558291
0.000248203535350802
0.000247191106436794
0.000245462765498721
0.000242623796805403
0.000238139865335642
0.000231333802070333
0.000221408974201631
0.000207507093173069
0.000188802090544505
0.000164622515756728
0.000134584982076911
9.87134093522355e-05
5.75157614776428e-05
1.17150297476783e-05
3.99070810648136e-07
3.95493760245911e-07
1.16441242011673e-05
5.72699770833781e-05
9.83474383586588e-05
0.00013413310059093
0.000164116868253707
0.000188269974598178
0.000206969181141131
0.000220878892631989
0.00023081883542557
0.000237642365990731
0.000242142843234216
0.000244995689517713
0.000246734670027423
0.000247754678740535
0.000248330859597291
0.000248644588002506
0.000248809407855588
0.000248893037161355
0.000248934060313638
0.00024895353227693
0.000248962479798921
0.000248966452815964
0.000248968131676625
0.000248968737322766
0.000248968738305842
0.00024896814080409
0.000248966491619399
0.000248962596069722
0.000248953822913915
0.000248934711876979
0.000248894393103873
0.000248812072177641
0.000248649572322487
0.000248339770971945
0.000247769925948274
0.000246759635755913
0.000245034779946552
0.000242201298088558
0.00023772571188381
0.000230931911835577
0.000221024498601002
0.000207146525517951
0.000188473271710965
0.000164334506624969
0.000134347786387507
9.85375507721057e-05
5.74117522470128e-05
1.16937949153926e-05
3.98365578876239e-07
3.93957537082375e-07
1.15982421180041e-05
5.7046921612131e-05
9.79721603616768e-05
0.000133629275383452
0.000163507920682853
0.00018757795760297
0.00020621385061904
0.000220077095028387
0.00022998424529164
0.00023678554832864
0.000241271566726518
0.000244115392951088
0.000245848978115009
0.000246865892975058
0.000247440373185206
0.000247753205651789
0.000247917573397617
0.000248000984491108
0.000248041907228815
0.000248061335440598
0.000248070265187947
0.000248074231735177
0.000248075908806615
0.000248076514703261
0.000248076517305662
0.000248075923597846
0.0002480742831845
0.000248070407429235
0.000248061677573852
0.000248042657978798
0.000248002525642955
0.000247920571989967
0.00024775877150715
0.000247450257512846
0.000246882702499754
0.000245876347190787
0.000244158019226072
0.000241334988453579
0.000236875544825717
0.000230105796900672
0.000220232957965044
0.000206402950692997
0.000187793958705747
0.000163738403343458
0.000133855921336488
9.81721601347587e-05
5.71951906409394e-05
1.16494394847057e-05
3.96887663438257e-07
3.91595821533569e-07
1.15277284132439e-05
5.67040090600453e-05