/*--------------------------------*- C++ -*----------------------------------*\
  =========                 |
  \\      /  F ield         | OpenFOAM: The Open Source CFD Toolbox
   \\    /   O peration     | Website:  https://openfoam.org
    \\  /    A nd           | Version:  10
     \\/     M anipulation  |
\*---------------------------------------------------------------------------*/
FoamFile
{
    format      ascii;
    class       volScalarField;
    location    "10";
    object      nut;
}
// * * * * * * * * * * * * * * * * * * * * * * * * * * * * * * * * * * * * * //

dimensions      [0 2 -1 0 0 0 0];

internalField   nonuniform List<scalar> 
2500
(
3.88082792742465e-15
7.65886289292591e-14
3.29442220200562e-13
5.78365694344296e-13
8.03515232498274e-13
9.97379138302771e-13
1.15663854595265e-12
1.28153055656884e-12
1.3750779495676e-12
1.44205021581695e-12
1.48791442836944e-12
1.51798622809783e-12
1.53688244159106e-12
1.54827355999401e-12
1.55486824490797e-12
1.55853872410692e-12
1.56050484809789e-12
1.56151945971348e-12
1.56202434075317e-12
1.56226677701984e-12
1.56237915937894e-12
1.56242942090102e-12
1.5624510219544e-12
1.56245974972841e-12
1.56246259652632e-12
1.56246207623839e-12
1.56245793279192e-12
1.56244705147433e-12
1.56242147736348e-12
1.56236381406641e-12
1.56223799660473e-12
1.56197216946909e-12
1.56142860120985e-12
1.56035374984555e-12
1.55830033382289e-12
1.55451418191042e-12
1.54778371875698e-12
1.53626151091728e-12
1.517286510024e-12
1.48726065450975e-12
1.4416571117636e-12
1.37524730018307e-12
1.28261397417353e-12
1.15895733648026e-12
1.00110355635596e-12
8.08516377442302e-13
5.84050825399025e-13
3.34527734581861e-13
7.85372139353855e-14
4.03271739727927e-15
3.85160190556438e-13
1.99351765605126e-11
8.75200549554316e-11
1.53723250093775e-10
2.13639729018148e-10
2.65295208644952e-10
3.07798874977745e-10
3.41195592302359e-10
3.66267465372344e-10
3.84263006823863e-10
3.96621828912658e-10
4.04750195339863e-10
4.09874744168851e-10
4.12974798954123e-10
4.14776131358125e-10
4.15782562279146e-10
4.16323802173045e-10
4.1660424516799e-10
4.16744379189106e-10
4.16811957429716e-10
4.16843420417544e-10
4.16857555422861e-10
4.16863659213479e-10
4.16866138034271e-10
4.1686695167957e-10
4.16866807744285e-10
4.16865635702813e-10
4.16862562764964e-10
4.16855366213913e-10
4.16839203581968e-10
4.16804077293438e-10
4.16730152060088e-10
4.1657957428378e-10
4.16282958800502e-10
4.15718423341495e-10
4.14681331608182e-10
4.12844318636018e-10
4.09710289689909e-10
4.04566177739186e-10
3.96451763976474e-10
3.84163906460547e-10
3.66318778305209e-10
3.41489166935009e-10
3.08417826746009e-10
2.66282379571394e-10
2.14959213242979e-10
1.55217775329046e-10
8.88525050205048e-11
2.0433651001012e-11
3.99727518112762e-13
1.36823710631685e-12
3.58721118423835e-10
1.23965338140776e-07
2.17549769732758e-07
3.01838408430922e-07
3.74314502756793e-07
4.33846374010506e-07
4.80580035580443e-07
5.1565940727337e-07
5.40851815442877e-07
5.58173060618058e-07
5.69583844574539e-07
5.76792422965874e-07
5.81163428963434e-07
5.83709859492296e-07
5.85136563897952e-07
5.85906087980408e-07
5.86306049827555e-07
5.865065487608e-07
5.86603560124077e-07
5.8664888370731e-07
5.86669320277732e-07
5.86678179927896e-07
5.86681793940941e-07
5.86682988412624e-07
5.86682788219814e-07
5.86681096435353e-07
5.86676660819852e-07
5.8666629552e-07
5.86643075590252e-07
5.86592741953478e-07
5.86487082824675e-07
5.86272408079015e-07
5.85850579496459e-07
5.85049684010449e-07
5.83581866967037e-07
5.80987830731093e-07
5.76571813322513e-07
5.69337809396548e-07
5.57946565917678e-07
5.40720883910017e-07
5.15729594556976e-07
4.80973119785122e-07
4.34672449704746e-07
3.75630154186814e-07
3.03595096041092e-07
2.19535876109696e-07
1.25727801474314e-07
3.66963736308949e-10
1.4126819107799e-12
2.42506528205633e-12
6.40268543029332e-10
2.22327232325145e-07
3.89238347522722e-07
5.3891155950704e-07
6.6715902057009e-07
7.72208216772229e-07
8.54499626944143e-07
9.16177158482382e-07
9.60428980132802e-07
9.90839539369494e-07
1.01087060502933e-06
1.02352690638754e-06
1.03120413471511e-06
1.03567917087985e-06
1.03818817145979e-06
1.03954255331526e-06
1.04024713827545e-06
1.04060069863481e-06
1.04077195717488e-06
1.0408520656291e-06
1.04088823550036e-06
1.04090394071871e-06
1.04091036171939e-06
1.04091249769696e-06
1.04091216927551e-06
1.04090922206762e-06
1.04090146908552e-06
1.04088333428136e-06
1.04084268612187e-06
1.04075453153954e-06
1.04056940181344e-06
1.04019312227684e-06
1.03945351036755e-06
1.03804888278106e-06
1.03547399889779e-06
1.03092252731702e-06
1.02317260652787e-06
1.01047409656052e-06
9.90471230875024e-07
9.60208109861738e-07
9.16269384906773e-07
8.55096078151397e-07
7.73481416799842e-07
6.69196325194444e-07
5.41632091117034e-07
3.92299556121207e-07
2.25007562463431e-07
6.52468296130451e-10
2.48950551314978e-12
3.47385474393769e-12
9.17662199285865e-10
3.1828731681698e-07
5.55963080490301e-07
7.68290950600409e-07
9.49666580818358e-07
1.09787362597751e-06
1.21376086097811e-06
1.3005062448044e-06
1.36269194349088e-06
1.40540803677016e-06
1.43354092078794e-06
1.4513182718102e-06
1.46210522367851e-06
1.46839581646298e-06
1.47192481134703e-06
1.47383112010317e-06
1.47482361764073e-06
1.4753220936216e-06
1.47556378438587e-06
1.47567696248228e-06
1.4757281274201e-06
1.4757503770072e-06
1.47575949364583e-06
1.47576254516588e-06
1.47576211722179e-06
1.47575801508469e-06
1.47574718520162e-06
1.47572182664107e-06
1.4756649491275e-06
1.47554152698592e-06
1.4752821975919e-06
1.4747548545573e-06
1.47371787056239e-06
1.47174774569425e-06
1.46813501257918e-06
1.46174705330992e-06
1.45086690748554e-06
1.43303385651319e-06
1.40493248518137e-06
1.36239585352306e-06
1.30059519314944e-06
1.21447182373981e-06
1.0994198353334e-06
9.5215401092121e-07
7.71613817368305e-07
5.59687852779773e-07
3.21519701286008e-07
9.32294547036499e-10
3.55161901087712e-12
4.49097167387294e-12
1.18644851192233e-09
4.10722799775296e-07
7.15876796485903e-07
9.87562794812512e-07
1.21900610742215e-06
1.40771856984927e-06
1.55504181779219e-06
1.66519482918511e-06
1.74410525840392e-06
1.79829008278231e-06
1.8339731461149e-06
1.85652443549829e-06
1.87021226247934e-06
1.87819807382804e-06
1.88268057370374e-06
1.88510354321564e-06
1.88636598095894e-06
1.88700056711151e-06
1.88730854198593e-06
1.88745291223718e-06
1.88751825802221e-06
1.88754671668456e-06
1.88755840292254e-06
1.88756233750138e-06
1.88756183593427e-06
1.88755667746644e-06
1.88754301013806e-06
1.88751097625318e-06
1.8874390834385e-06
1.88728299740526e-06
1.88695487733652e-06
1.88628735186058e-06
1.88497417962289e-06
1.8824784401088e-06
1.87790039984968e-06
1.86980328094898e-06
1.85600828977691e-06
1.83339125573431e-06
1.79773942107023e-06
1.74375052934745e-06
1.66526478802277e-06
1.55579973791906e-06
1.40940041592142e-06
1.22172703156276e-06
9.9120056627375e-07
7.19945188436337e-07
4.14238700554676e-07
1.20246797028011e-09
4.57748745894493e-12
5.4626610066662e-12
1.44324861818473e-09
4.9865313087386e-07
8.6739858144438e-07
1.19469329652499e-06
1.4728220319899e-06
1.69916918603466e-06
1.87562556696519e-06
2.00743428993342e-06
2.10180221710932e-06
2.16658234881387e-06
2.20924094394731e-06
2.23620470402064e-06
2.25257571600572e-06
2.26213106797171e-06
2.26749743819427e-06
2.2704000025976e-06
2.271913410522e-06
2.2726747665991e-06
2.27304460063149e-06
2.27321814737509e-06
2.27329679342357e-06
2.27333109529338e-06
2.27334521166712e-06
2.27334999108324e-06
2.27334943920415e-06
2.27334332137288e-06
2.27332705586725e-06
2.27328889855889e-06
2.27320321857779e-06
2.27301711438702e-06
2.27262572225748e-06
2.27182915650485e-06
2.27026156014507e-06
2.26728130479969e-06
2.26181291903994e-06
2.25213855987621e-06
2.23565244901903e-06
2.20861658911822e-06
2.16598703134847e-06
2.10140774338309e-06
2.00747896779376e-06
1.87638298543494e-06
1.70088337785741e-06
1.47560992459384e-06
1.19842413878615e-06
8.71566357126624e-07
5.02253022126984e-07
1.45989512787293e-09
5.554524420028e-12
6.37865141413373e-12
1.68541720696219e-09
5.81278329076847e-07
1.00926967349177e-06
1.38809744389193e-06
1.70931152976502e-06
1.97028465276213e-06
2.17348722843618e-06
2.32514966976209e-06
2.43367809713217e-06
2.50816214496777e-06
2.55721051393008e-06
2.58821826534758e-06
2.60705031343022e-06
2.61804671372362e-06
2.62422557842507e-06
2.62756962488129e-06
2.62931442424413e-06
2.63019286872623e-06
2.63061995271788e-06
2.6308205645731e-06
2.63091158247242e-06
2.63095133871309e-06
2.63096773532608e-06
2.63097331674529e-06
2.63097273491474e-06
2.63096575190334e-06
2.6309471247961e-06
2.63090339285013e-06
2.63080515177085e-06
2.630591679702e-06
2.63014256032404e-06
2.62922817981701e-06
2.62742813998104e-06
2.62400496801332e-06
2.61772226270381e-06
2.60660470392435e-06
2.58765520967924e-06
2.55657294757446e-06
2.50755114174706e-06
2.43326509026162e-06
2.32517183661576e-06
2.17421585451558e-06
1.97196022089607e-06
1.71204691556353e-06
1.39175977041568e-06
1.01335887614249e-06
5.84817821376212e-07
1.70213387114025e-09
6.47326084836705e-12
7.23129674820232e-12
1.91096199764477e-09
6.57998953868518e-07
1.14057898734949e-06
1.56666432361295e-06
1.92724717563095e-06
2.21977659379158e-06
2.4473105513648e-06
2.61701418630218e-06
2.73840332132682e-06
2.82169977393001e-06
2.87655250292658e-06
2.91123587592205e-06
2.93230663448935e-06
2.94461526383547e-06
2.95153490047761e-06
2.95528202340466e-06
2.95723842008551e-06
2.95822412784924e-06
2.95870376395647e-06
2.95892927819156e-06
2.9590317113326e-06
2.95907651828847e-06
2.95909503773038e-06
2.95910137452733e-06
2.95910078034893e-06
2.95909302252533e-06
2.95907226476438e-06
2.9590234963853e-06
2.95891390040357e-06
2.95867567471448e-06
2.95817431055269e-06
2.95715323847194e-06
2.95514257759323e-06
2.95131786034961e-06
2.94429656239415e-06
2.93186950675366e-06
2.91068410070386e-06
2.8759279580391e-06
2.82110051072351e-06
2.73799494219136e-06
2.61702478229057e-06
2.44799958922207e-06
2.22137214236533e-06
1.92985345200245e-06
1.57015071394248e-06
1.14446959697925e-06
6.61379698291038e-07
1.92735316109471e-09
7.32668651451704e-12
8.01535131189094e-12
2.11850789160799e-09
7.28416085003884e-07
1.26075531697082e-06
1.72973837978298e-06
2.12594731073985e-06
2.44697009278113e-06
2.69644162636458e-06
2.88239762158604e-06
3.01536816946603e-06
3.1066008129819e-06
3.16668274635592e-06
3.20467966277749e-06
3.2277703611232e-06
3.24126425062063e-06
3.24885381690583e-06
3.25296598524703e-06
3.25511431985669e-06
3.25619749930451e-06
3.25672498734449e-06
3.25697323027616e-06
3.25708611192597e-06
3.25713555871331e-06
3.25715603867409e-06
3.25716308142454e-06
3.25716249005697e-06
3.25715404323495e-06
3.25713137754944e-06
3.25707809385395e-06
3.25695831372386e-06
3.25669787710595e-06
3.25614961060871e-06
3.25503270481679e-06
3.25283275816352e-06
3.24864699994795e-06
3.24096134112224e-06
3.22735599752125e-06
3.20415814176785e-06
3.1660944659113e-06
3.10603897268957e-06
3.01498888848821e-06
2.8824143910065e-06
2.69709534978098e-06
2.44846998087502e-06
2.12838526810332e-06
1.73298836553345e-06
1.26437682074829e-06
7.31578340026392e-07
2.13431222627928e-09
8.11009789673014e-12
8.7277874146428e-12
2.30725369694328e-09
7.92317973849273e-07
1.36953855822694e-06
1.877074636611e-06
2.3052170360038e-06
2.65173314880231e-06
2.92080958033502e-06
3.12128069640154e-06
3.26459278371896e-06
3.3629132140732e-06
3.42766750661211e-06
3.46862721261814e-06
3.49352568329915e-06
3.50808150090269e-06
3.51627204664313e-06
3.52071215740313e-06
3.52303319763029e-06
3.52420423967269e-06
3.52477495031851e-06
3.5250437719099e-06
3.52516614087265e-06
3.52521981612791e-06
3.52524209211662e-06
3.52524978937416e-06
3.52524921320373e-06
3.52524015858688e-06
3.52521579753305e-06
3.52515849741104e-06
3.52502965597019e-06
3.52474945089467e-06
3.52415942162401e-06
3.52295714226246e-06
3.52058848986601e-06
3.51608080572632e-06
3.5078025435531e-06
3.49314585955664e-06
3.46815193343257e-06
3.42713574578756e-06
3.36241245469857e-06
3.26426756382008e-06
3.12132650332236e-06
2.92144440194914e-06
2.65314296398692e-06
2.3074785464675e-06
1.88006679782467e-06
1.37286143630943e-06
7.95233874653442e-07
2.32232266613033e-09
8.82093647103575e-12
9.36757739990254e-12
2.47691628070145e-09
8.49660030621315e-07
1.46694167367473e-06
2.00878381637219e-06
2.46527910727153e-06
2.8343963838622e-06
3.12083793905384e-06
3.33416047024827e-06
3.48662846508996e-06
3.59122587408504e-06
3.66012029454543e-06
3.70370731093377e-06
3.7302103924222e-06
3.74570985847829e-06
3.75443513238163e-06
3.75916745512787e-06
3.76164263235498e-06
3.76289223206944e-06
3.76350166722509e-06
3.76378896996877e-06
3.76391988388536e-06
3.76397738164633e-06
3.76400128958984e-06
3.76400958850582e-06
3.76400903737749e-06
3.76399945116023e-06
3.76397359566888e-06
3.76391275186903e-06
3.7637759144892e-06
3.76347826111673e-06
3.76285135695907e-06
3.76157366316671e-06
3.75905591981553e-06
3.75426362500165e-06
3.74546127077112e-06
3.72987453590301e-06
3.70329140317805e-06
3.65966231559208e-06
3.59080751110984e-06
3.48638186194709e-06
3.33426146303601e-06
3.1214792439676e-06
2.8357381022278e-06
2.46738048368937e-06
2.01152768165929e-06
1.4699690129769e-06
8.52327256293975e-07
2.49119439316507e-09
9.45857569357301e-12
9.9354420555307e-12
2.62766644267787e-09
9.00542176026014e-07
1.55321006705991e-06
2.12527591612098e-06
2.60670464619139e-06
2.99567386053149e-06
3.29735817283527e-06
3.52195873935789e-06
3.68246254894467e-06
3.79257117757971e-06
3.86510291783097e-06
3.91100006551394e-06
3.93891545261173e-06
3.95524643761322e-06
3.96444351798152e-06
3.96943404544049e-06
3.97204564321772e-06
3.97336489780486e-06
3.97400873980854e-06
3.9743125026045e-06
3.97445104913812e-06
3.97451197389385e-06
3.97453735240434e-06
3.97454619962447e-06
3.9745456810547e-06
3.97453563403433e-06
3.97450847235795e-06
3.97444452861142e-06
3.97430069608686e-06
3.97398777570958e-06
3.97332859607208e-06
3.97198486762657e-06
3.96933652270811e-06
3.96429481818449e-06
3.95503304353815e-06
3.93863081270564e-06
3.91065394259222e-06
3.86473299864631e-06
3.7922538779718e-06
3.68231781904766e-06
3.52214251958255e-06
3.2980371597091e-06
2.9969810371581e-06
2.60868009680779e-06
2.12780408482241e-06
1.55596954604526e-06
9.02977972709398e-07
2.64117226188258e-09
1.00240695229556e-11
1.04335782231546e-11
2.76005977159246e-09
9.45185223763812e-07
1.6287807834569e-06
2.22720495946438e-06
2.73034644607469e-06
3.13658774163082e-06
3.45152807412643e-06
3.6859360005399e-06
3.85342936269206e-06
3.96833396901567e-06
4.04403318290077e-06
4.09194382233458e-06
4.1210914468932e-06
4.13814879854652e-06
4.14775857366172e-06
4.15297529195236e-06
4.15570659313464e-06
4.15708707944618e-06
4.15776123060768e-06
4.15807952828287e-06
4.15822483444865e-06
4.15828880548468e-06
4.15831549786171e-06
4.15832484039478e-06
4.15832435977269e-06
4.15831391715945e-06
4.15828562414395e-06
4.15821899313662e-06
4.15806909663181e-06
4.15774293981352e-06
4.15705576903905e-06
4.15565474929923e-06
4.15289304935088e-06
4.14763478984614e-06
4.13797398702188e-06
4.12086327988861e-06
4.09167534607693e-06
4.04376266169756e-06
3.96813350245398e-06
3.85340766154945e-06
3.68622993182496e-06
3.45227880829243e-06
3.13790101173936e-06
2.73224196302083e-06
2.22956578155845e-06
1.63131726206513e-06
9.47420858951601e-07
2.77286770351355e-09
1.0519880090607e-11
1.08653736955923e-11
2.87496404473311e-09
9.83906768425855e-07
1.69424192384502e-06
2.31541498661822e-06
2.83727453539752e-06
3.25839607090209e-06
3.58475392158059e-06
3.82760968287009e-06
4.00112578297306e-06
4.12016534375531e-06
4.19859755506616e-06
4.24824712486116e-06
4.27846011684244e-06
4.29614624462703e-06
4.30611375801627e-06
4.3115268443388e-06
4.314362240719e-06
4.31579607413698e-06
4.31649668736938e-06
4.31682770613383e-06
4.31697894587934e-06
4.31704560090759e-06
4.31707345683421e-06
4.31708324281944e-06
4.3170828036735e-06
4.31707202502919e-06
4.31704276167988e-06
4.31697382379404e-06
4.31681872165175e-06
4.3164812005995e-06
4.31576999061314e-06
4.3143197487333e-06
4.31146061870328e-06
4.30601615558275e-06
4.29601213709954e-06
4.27829188791393e-06
4.24806180145247e-06
4.19843493071948e-06
4.12009442946102e-06
4.00124552095482e-06
3.82803944799008e-06
3.58561075965082e-06
3.25975917530103e-06
2.83914247125126e-06
2.31766605679744e-06
1.69661084170861e-06
9.85982534524982e-07
2.88718734246395e-09
1.09495946230515e-11
1.12351153252921e-11
2.97348436616955e-09
1.01709679274901e-06
1.7502923022222e-06
2.3908869791263e-06
2.92871333166168e-06
3.36252267529344e-06
3.69861515748391e-06
3.94867516371492e-06
4.1273297559723e-06
4.24989951555362e-06
4.33066696438661e-06
4.38180385979851e-06
4.41292911162882e-06
4.43115434120302e-06
4.44142900810263e-06
4.44701095892391e-06
4.44993602472265e-06
4.45141589993165e-06
4.45213940066775e-06
4.45248144954252e-06
4.45263784955199e-06
4.45270684759264e-06
4.45273572452679e-06
4.45274590389942e-06
4.45274550816284e-06
4.45273444743592e-06
4.45270436082146e-06
4.4526334636238e-06
4.45247393996356e-06
4.4521267649988e-06
4.45139512684179e-06
4.44990303851897e-06
4.44696104020061e-06
4.44135813617764e-06
4.43106196826639e-06
4.41282271570163e-06
4.38170507303077e-06
4.33061806654003e-06
4.24996779245912e-06
4.12760616031231e-06
3.949263647099e-06
3.69961065555704e-06
3.36397915820496e-06
2.93060783898351e-06
2.39308962503368e-06
1.75255404261441e-06
1.01905767624669e-06
2.98525988448622e-09
1.13176381263529e-11
1.15476975551364e-11
3.05688783269493e-09
1.0451934151263e-06
1.79770179781545e-06
2.4546870753508e-06
3.00598059811858e-06
3.45048925752575e-06
3.79479152438784e-06
4.05092941930435e-06
4.23392156111198e-06
4.35947349220253e-06
4.44221545669795e-06
4.49461126823486e-06
4.52650961292572e-06
4.54519231544736e-06
4.55572801269924e-06
4.56145370328477e-06
4.56445523272071e-06
4.56597444637164e-06
4.56671754568132e-06
4.56706906382424e-06
4.56722990749022e-06
4.56730093097031e-06
4.56733069522849e-06
4.56734122028531e-06
4.56734086859031e-06
4.56732957430911e-06
4.56729879770725e-06
4.5672262561957e-06
4.56706302131808e-06
4.56670774140538e-06
4.56595894556855e-06
4.56443169209987e-06
4.56142001923322e-06
4.55568383383835e-06
4.54514180144211e-06
4.52646561411324e-06
4.49460055191363e-06
4.44228369194021e-06
4.3596876266286e-06
4.23436647041403e-06
4.05169595799494e-06
3.79595489287072e-06
3.45207991965302e-06
3.0079540293351e-06
2.45690194177418e-06
1.79991711385754e-06
1.04708551751212e-06
3.06836299389581e-09
1.16289888693224e-11
1.18083402637323e-11
3.12653010515882e-09
1.06865942118672e-06
1.8372732844233e-06
2.50791707046366e-06
3.07042924218257e-06
3.52385073289498e-06
3.87499371850927e-06
4.13619836734471e-06
4.32280887485389e-06
4.45085061540387e-06
4.53524274544976e-06
4.58869187755434e-06
4.62123789093021e-06
4.6403043923057e-06
4.65105942388062e-06
4.6569060999983e-06
4.65997210915859e-06
4.66152456438766e-06
4.66228426319445e-06
4.66264382301309e-06
4.66280845248478e-06
4.66288120849504e-06
4.66291173598049e-06
4.66292256182524e-06
4.66292225380508e-06
4.66291076934723e-06
4.66287942269744e-06
4.66280552030881e-06
4.66263921288646e-06
4.66227722018276e-06
4.66151420560146e-06
4.65995779090514e-06
4.65688830021058e-06
4.65104144450097e-06
4.6402951448441e-06
4.62125577678176e-06
4.58876922293378e-06
4.53542941587115e-06
4.45121454430359e-06
4.32343076753549e-06
4.13715837674098e-06
3.87634983557094e-06
3.52561185679101e-06
3.07252952987431e-06
2.51020082126906e-06
1.8394998145041e-06
1.07052716961006e-06
3.13785236264036e-09
1.1888904874674e-11
1.20223253497158e-11
3.18378645722194e-09
1.08796031791247e-06
1.86980721394535e-06
2.5516684961272e-06
3.12339339617038e-06
3.58413535270842e-06
3.94089917596551e-06
4.20626957149918e-06
4.39585734296779e-06
4.52594969999871e-06
4.61170241744105e-06
4.6660211188122e-06
4.69910256340316e-06
4.7184868427919e-06
4.72942378567493e-06
4.73537098971539e-06
4.73849068369496e-06
4.74007087688167e-06
4.74084446139915e-06
4.7412107674627e-06
4.74137858375005e-06
4.74145280443563e-06
4.74148398099881e-06
4.74149506583263e-06
4.7414948004055e-06
4.74148316436016e-06
4.74145135502579e-06
4.74137634538188e-06
4.74120753637761e-06
4.7408400746362e-06
4.7400654659629e-06
4.73848525075662e-06
4.73536852723127e-06
4.7294311844813e-06
4.71851774300473e-06
4.69918100773986e-06
4.66618530823136e-06
4.61200709949471e-06
4.52646499374994e-06
4.39666157887816e-06
4.20743451933578e-06
3.94246812590074e-06
3.58609765820765e-06
3.12566236317708e-06
2.55407157972297e-06
1.87209704143733e-06
1.08984444945972e-06
3.19509533111802e-09
1.21026699559283e-11
1.21947601135991e-11
3.22998951734494e-09
1.10354455507452e-06
1.89606980838009e-06
2.58698144797898e-06
3.16614010252942e-06
3.63279105138585e-06
3.99409451557772e-06
4.26283189619014e-06
4.4548282967421e-06
4.58658144104998e-06
4.6734374832459e-06
4.72846233483658e-06
4.76197927201952e-06
4.78162246437657e-06
4.79270790268725e-06
4.79873733822746e-06
4.80190104552489e-06
4.80350403619636e-06
4.80428906497311e-06
4.80466094888895e-06
4.8048314100878e-06
4.80490685218563e-06
4.8049385736229e-06
4.80494987890654e-06
4.80494965451843e-06
4.80493790115624e-06
4.80490572497586e-06
4.80482983432705e-06
4.80465903251657e-06
4.80428720905383e-06
4.80350334156184e-06
4.80190409332667e-06
4.79874954705542e-06
4.79273965407974e-06
4.78169205283091e-06
4.76211639818016e-06
4.72871128878832e-06
4.67385844766386e-06
4.58724775767112e-06
4.45581753197061e-06
4.26420956961419e-06
3.99589157865209e-06
3.63497928757948e-06
3.16861259015586e-06
2.58954680569458e-06
1.89846795645244e-06
1.10548080623198e-06
3.24141106051961e-09
1.22753664031608e-11
1.23303730772533e-11
3.26637527790341e-09
1.11582637570673e-06
1.91676554032693e-06
2.61480899443607e-06
3.19982755174741e-06
3.67113905418563e-06
4.03602574432874e-06
4.30742327065352e-06
4.50132481121283e-06
4.63439331466824e-06
4.7221245172385e-06
4.77771043638363e-06
4.81157404118632e-06
4.8314237633521e-06
4.84262792133428e-06
4.84872326170782e-06
4.85192233864068e-06
4.8535437038526e-06
4.85433798704004e-06
4.85471439852995e-06
4.85488701624576e-06
4.85496345979912e-06
4.85499563148244e-06
4.85500712193416e-06
4.85500693678908e-06
4.85499509660327e-06
4.85496263919046e-06
4.85488606948774e-06
4.85471372841131e-06
4.85433852921939e-06
4.85354748044264e-06
4.85193343731709e-06
4.84874942809643e-06
4.84268291012897e-06
4.83153041544606e-06
4.81176767551323e-06
4.77804155774508e-06
4.72265916468054e-06
4.63520890733744e-06
4.50249953051523e-06
4.30901825830026e-06
4.03806173293661e-06
3.67357209344742e-06
3.20253120528663e-06
2.6175715370472e-06
1.91930923847229e-06
1.11784476460215e-06
3.27801864391197e-09
1.24116791088597e-11
1.24333448746443e-11
3.29403814723498e-09
1.12517151919426e-06
1.9325142183443e-06
2.6359875472751e-06
3.22547030397911e-06
3.70033521899162e-06
4.06795673460276e-06
4.34138710049671e-06
4.53674666631183e-06
4.67082355031346e-06
4.75922697688847e-06
4.81524480407818e-06
4.84937592227765e-06
4.86938544539441e-06
4.88068173189049e-06
4.88682837949115e-06
4.89005508809883e-06
4.89169086300635e-06
4.89249243463564e-06
4.89287242920102e-06
4.89304676334414e-06
4.89312400965977e-06
4.89315654583509e-06
4.89316818930081e-06
4.8931680415531e-06
4.89315614187512e-06
4.89312348014366e-06
4.89304641263628e-06
4.89287293875393e-06
4.89249524627496e-06
4.89169887333169e-06
4.89007381976145e-06
4.88686780521466e-06
4.88075885606121e-06
4.86952753027405e-06
4.84962382750994e-06
4.81565530221823e-06
4.75987226151887e-06
4.671785785178e-06
4.53810576910108e-06
4.3432013982408e-06
4.07023855164866e-06
3.70302649362979e-06
3.22842582439661e-06
2.63897419084772e-06
1.93523274259097e-06
1.12729607765948e-06
3.3059937937874e-09
1.2515733093491e-11
1.25071742340516e-11
3.31389513341701e-09
1.13188579959542e-06
1.94383268647361e-06
2.6512131897206e-06
3.24391148385066e-06
3.72133910179324e-06
4.09093596744907e-06
4.36583732766712e-06
4.56225421873349e-06
4.69706418836099e-06
4.78595772002628e-06
4.84229145830242e-06
4.87661894788851e-06
4.89674624052175e-06
4.90811071854567e-06
4.91429552217366e-06
4.91754288537666e-06
4.91918949185921e-06
4.91999657604198e-06
4.9203792996024e-06
4.92055495172614e-06
4.9206328206372e-06
4.9206656433917e-06
4.92067741057416e-06
4.92067729848754e-06
4.92066536415088e-06
4.92063256802213e-06
4.92055516728135e-06
4.92038092909278e-06
4.92000154210723e-06
4.91920152355318e-06
4.91756887534177e-06
4.91434757787485e-06
4.90820897646797e-06
4.89692225734131e-06
4.87691902577692e-06
4.8427786351203e-06
4.78671053184745e-06
4.69817002740089e-06
4.56379559075758e-06
4.3678709708225e-06
4.09346725448168e-06
3.72429721287682e-06
3.24713314107796e-06
2.65444322666974e-06
1.94674755853459e-06
1.13413459708673e-06
3.32623411775874e-09
1.25909640369971e-11
1.25545770175814e-11
3.32665870565428e-09
1.13620641901999e-06
1.95112089969463e-06
2.66102364823813e-06
3.25580158280281e-06
3.73489034603245e-06
4.10577112125906e-06
4.38163170649061e-06
4.57874074611052e-06
4.71403278169413e-06
4.80325027813023e-06
4.85979405492176e-06
4.89425295427679e-06
4.91445962100586e-06
4.92587041634434e-06
4.93208135417042e-06
4.93534299216839e-06
4.93699715753251e-06
4.93780812956038e-06
4.93819280054763e-06
4.93836940593126e-06
4.93844773246741e-06
4.93848077043583e-06
4.9384926345127e-06
4.93849255658658e-06
4.93848061063044e-06
4.93844774486145e-06
4.9383701631303e-06
4.93819550100954e-06
4.9378151561005e-06
4.93701303715229e-06
4.93537593352613e-06
4.93214552142992e-06
4.92598897587113e-06
4.91466830740877e-06
4.8946034081622e-06
4.86035553673376e-06
4.80410775721927e-06
4.71527918848091e-06
4.58046175260074e-06
4.38388333564703e-06
4.10855286922027e-06
3.73811968025741e-06
3.25929779317008e-06
2.66450923676536e-06
1.95424623592657e-06
1.13859172168875e-06
3.33943251277473e-09
1.26400196245154e-11
1.25774151853422e-11
3.33281759869813e-09
1.1382957947276e-06
1.95465201614309e-06
2.66578544211807e-06
3.26158326261751e-06
3.74149170341189e-06
4.11301077094938e-06
4.38935254331606e-06
4.58681250700012e-06
4.72235198744626e-06
4.81173813893791e-06
4.86839296843605e-06
4.90292254181126e-06
4.92317268938859e-06
4.93460935854378e-06
4.94083519971116e-06
4.94410515619887e-06
4.9457638278445e-06
4.94657717439452e-06
4.94696306638165e-06
4.9471402871542e-06
4.94721891924768e-06
4.94725210711095e-06
4.94726404379083e-06
4.94726399893304e-06
4.94725206292154e-06
4.94721918815482e-06
4.94714156852797e-06
4.94696680315142e-06
4.94658619479569e-06
4.94578343182863e-06
4.94414482868434e-06
4.94091110269822e-06
4.93474760839216e-06
4.92341310185195e-06
4.90332199709659e-06
4.86902687850538e-06
4.81269791051109e-06
4.72373623581792e-06
4.58871037179678e-06
4.39181984760218e-06
4.11604181023539e-06
3.74499294062826e-06
3.26535707138952e-06
2.66953201675943e-06
1.95799483990005e-06
1.14082421920117e-06
3.34605798654709e-09
1.26646887466443e-11
1.25766506075981e-11
3.33262418949489e-09
1.13823752451152e-06
1.95456602210353e-06
2.66568572197078e-06
3.26148187268043e-06
3.74139850402947e-06
4.11293302635047e-06
4.38929469402515e-06
4.58677626035119e-06
4.72233673806833e-06
4.81174162445703e-06
4.86841199867669e-06
4.90295367279998e-06
4.92321270522291e-06
4.93465555729533e-06
4.94088549361193e-06
4.94415804230768e-06
4.94581828909709e-06
4.94663255918892e-06
4.94701897692138e-06
4.94719649043789e-06
4.94727528328701e-06
4.9473085590898e-06
4.94732054553334e-06
4.94732053302731e-06
4.94730862808263e-06
4.94727580355733e-06
4.94719828581717e-06
4.94702373030969e-06
4.94664353593563e-06
4.9458415475891e-06
4.9442043196967e-06
4.94097291230582e-06
4.93481312916632e-06
4.92348425393374e-06
4.90340122889019e-06
4.86911702990796e-06
4.81280188661524e-06
4.7238564735047e-06
4.5888481414475e-06
4.39197450035991e-06
4.11621012718548e-06
3.7451687325321e-06
3.2655311013767e-06
2.66969219078053e-06
1.95812648629249e-06
1.1409102031557e-06
3.34634318276487e-09
1.26658556942629e-11
1.25523256814123e-11
3.32608927273439e-09
1.1360346807387e-06
1.95086686656274e-06
2.66072839336982e-06
3.25550076209931e-06
3.73461334175046e-06
4.10553975412971e-06
4.38145944990184e-06
4.57863291344864e-06
4.71398773219225e-06
4.80326135319146e-06
4.85985177774035e-06
4.89434702758813e-06
4.91458040870375e-06
4.92600980799845e-06
4.9322330748273e-06
4.93550252033292e-06
4.93716143127576e-06
4.93797518616234e-06
4.93836144134748e-06
4.93853892867689e-06
4.93861773934482e-06
4.93865104202856e-06
4.93866305591532e-06
4.93866307541609e-06
4.93865122308529e-06
4.9386185090683e-06
4.93854123508009e-06
4.93836720656178e-06
4.93798811088462e-06
4.93718832840055e-06
4.93555537110049e-06
4.93233194618434e-06
4.92618657829185e-06
4.91488285961522e-06
4.89484225972948e-06
4.86062719419937e-06
4.80442089166456e-06
4.71564102122519e-06
4.58087595124745e-06
4.38434775960523e-06
4.10905764208388e-06
3.73864604059946e-06
3.2598179410175e-06
2.66498700360396e-06
1.95463802740531e-06
1.13884700075189e-06
3.34027747843923e-09
1.26434725115576e-11
1.25035681869554e-11
3.31298319677684e-09
1.13161002001986e-06
1.94342262853857e-06
2.65073421529162e-06
3.24342131305063e-06
3.72088607700314e-06
4.09055656356996e-06
4.36555450983256e-06
4.56207748059322e-06
4.6969913803885e-06
4.78597818678689e-06
4.84238968384982e-06
4.87677790825601e-06
4.89694991776385e-06
4.90834558195994e-06
4.9145510763805e-06
4.91781155359628e-06
4.91946613593842e-06
4.92027789893501e-06
4.92066328623554e-06
4.9208404209746e-06
4.92091910330246e-06
4.92095237049355e-06
4.92096438934919e-06
4.92096444097165e-06
4.92095266389947e-06
4.9209201238758e-06
4.92084324254077e-06
4.92067007295432e-06
4.92029279117064e-06
4.91949670696343e-06
4.91787103510811e-06
4.91466148334921e-06
4.90854165221011e-06
4.89728335953481e-06
4.87732081433238e-06
4.84323523902646e-06
4.78723625049643e-06
4.69877659394557e-06
4.56448863644242e-06
4.36864628158609e-06
4.09430764307487e-06
3.72517077818145e-06
3.24799327733623e-06
2.65523007281128e-06
1.9473899196889e-06
1.1345511553853e-06
3.32760748326397e-09
1.25965656071858e-11
1.24286109143852e-11
3.29284121455608e-09
1.12480781707065e-06
1.93196859911836e-06