/*--------------------------------*- C++ -*----------------------------------*\
  =========                 |
  \\      /  F ield         | OpenFOAM: The Open Source CFD Toolbox
   \\    /   O peration     | Website:  https://openfoam.org
    \\  /    A nd           | Version:  10
     \\/     M anipulation  |
\*---------------------------------------------------------------------------*/
FoamFile
{
    format      ascii;
    class       volScalarField;
    location    "10";
    object      omega;
}
// * * * * * * * * * * * * * * * * * * * * * * * * * * * * * * * * * * * * * //

dimensions      [0 0 -1 0 0 0 0];

internalField   nonuniform List<scalar> 
2500
(
127771.591888028
127779.428025176
127777.514248905
127775.801185488
127774.563687166
127773.737222435
127773.205484613
127772.870818155
127772.664860459
127772.541821981
127772.469817727
127772.429210222
127772.40705014
127772.395103532
127772.388827394
127772.385474979
127772.383860137
127772.382933058
127772.382327396
127772.381988022
127772.381756184
127772.381586055
127772.381459505
127772.381387409
127772.381316664
127772.381267732
127772.381259522
127772.381275516
127772.381324627
127772.381417879
127772.381578608
127772.381892897
127772.382385538
127772.383288514
127772.385008536
127772.388336903
127772.394755273
127772.406848966
127772.429639384
127772.470661576
127772.542770323
127772.666006987
127772.87101228
127773.203651994
127773.733561662
127774.557990207
127775.797956982
127777.520268443
127779.437451345
127771.56970851
31871.6952948077
14164.6466166216
14163.6947306215
14162.8795785881
14162.2886673833
14161.8895560452
14161.6290236679
14161.4626343189
14161.3586357786
14161.2952551527
14161.2576866733
14161.2361002534
14161.2240882888
14161.2176060444
14161.2142145572
14161.2124887897
14161.2116407278
14161.2112276511
14161.2110254005
14161.2109278999
14161.2108786465
14161.2108516414
14161.2108356022
14161.2108262176
14161.210819211
14161.2108146155
14161.2108135395
14161.2108158872
14161.2108241769
14161.2108444809
14161.2108899597
14161.2109896909
14161.2111988097
14161.2116353361
14161.2125303463
14161.2143242496
14161.2178249389
14161.2244597638
14161.236677371
14161.2584647872
14161.2961640825
14161.3595175886
14161.4631525152
14161.6287660165
14161.8883232413
14162.2870091637
14162.8797455054
14163.6999619722
14164.6547928735
31871.654671747
31801.6703604514
3533.22390060713
50.873173206469
50.8688736403547
50.8657965888234
50.863730731009
50.8623870984932
50.8615309573701
50.8609964027123
50.8606705354291
50.8604772348657
50.8603659744766
50.8603039218096
50.8602703878707
50.86025282943
50.8602439133599
50.860239529377
50.8602374228831
50.860236425672
50.8602359614238
50.8602357425757
50.8602356341719
50.8602355764728
50.8602355444373
50.8602355234251
50.8602355104402
50.8602355072524
50.8602355167485
50.8602355518176
50.8602356430289
50.8602358580724
50.8602363435229
50.8602373974412
50.860239629574
50.8602442371522
50.8602534978107
50.8602715810995
50.8603058436089
50.8603688180321
50.8604810087548
50.8606749459652
50.8610006883259
50.8615336786495
50.8623865323063
50.8637263810623
50.8657925926514
50.8688836164201
50.8732174726537
3533.22915085187
31801.6473707714
31733.7310783656
3525.55547217646
50.7618432565177
50.7570141114181
50.7536365428907
50.7514098825417
50.7499855299579
50.7490916580109
50.7485410647547
50.74820938091
50.7480146916801
50.7479036670795
50.7478422581781
50.7478093316908
50.7477922206704
50.7477835997732
50.7477793912126
50.747777391035
50.7477764604038
50.7477760357154
50.7477758418048
50.747775750053
50.7477757036429
50.7477756786781
50.7477756632319
50.7477756537166
50.7477756504375
50.7477756566949
50.7477756847453
50.7477757629202
50.7477759543808
50.7477763974575
50.7477773801497
50.7477794889879
50.7477838863993
50.7477928053417
50.7478103729003
50.7478439456398
50.7479061840944
50.7480180979678
50.7482134909111
50.7485452810477
50.7490948332586
50.7499863769971
50.7514087178878
50.7536394801844
50.7570390427126
50.7619183493028
3525.56481680043
31733.7716991547
31673.213593314
3518.77688753367
50.6641833698653
50.6595070592527
50.6563164296549
50.654255218083
50.6529606578156
50.652161521675
50.6516763009975
50.6513875531991
50.6512198221906
50.6511250131852
50.6510729691808
50.6510452502383
50.6510309325236
50.6510237611188
50.6510202796512
50.6510186374819
50.6510178822221
50.6510175428329
50.6510173916561
50.6510173227135
50.6510172893161
50.6510172719962
50.6510172617535
50.6510172553587
50.6510172525639
50.6510172555119
50.6510172744581
50.6510173328522
50.6510174811966
50.6510178325264
50.6510186250495
50.6510203433809
50.6510239548296
50.651031333377
50.6510459718573
50.6510741543488
50.6511268084581
50.6512223070841
50.6513906492219
50.6516796448496
50.6521643903954
50.6529623835602
50.6542569663961
50.6563256304881
50.6595441049019
50.664282473349
3518.78984318039
31673.3292543865
31623.2109081945
3513.23126419232
50.5849427154136
50.5808827156349
50.5781813915067
50.5764725440576
50.5754193779251
50.5747800628458
50.5743974031093
50.5741723795948
50.5740429355267
50.5739703491374
50.5739307632626
50.5739097942204
50.5738990136062
50.5738936370465
50.5738910378316
50.5738898186635
50.5738892629089
50.5738890165131
50.5738889092559
50.573888862101
50.5738888402785
50.5738888294792
50.5738888233929
50.5738888194798
50.573888817444
50.5738888181105
50.5738888291286
50.5738888683662
50.5738889724253
50.573889224827
50.5738898030822
50.5738910678378
50.5738937427905
50.5738992399335
50.5739102093946
50.57393145738
50.573971421184
50.5740444558681
50.5741743341756
50.5743996130435
50.5747821590609
50.5754211945085
50.5764757705077
50.5781938081027
50.5809250854145
50.5850521633544
3513.24625391673
31623.3851361077
31584.6106712878
3508.9994342395
50.5250014215975
50.5217761014681
50.5196828001098
50.5183862869392
50.5176022871992
50.5171342616399
50.5168580428898
50.516697456423
50.5166059138509
50.516554945054
50.5165273025958
50.5165127239816
50.5165052552746
50.5165015420174
50.5164997524836
50.5164989167639
50.5164985386341
50.5164983731084
50.5164983027422
50.5164982730569
50.516498260054
50.5164982540269
50.5164982508611
50.516498248711
50.5164982472552
50.5164982468909
50.5164982524879
50.5164982763751
50.5164983436615
50.5164985112089
50.5164989009939
50.5164997602777
50.51650158709
50.5165053587524
50.5165129199035
50.5165276386264
50.5165554775356
50.5166066905439
50.5166984867768
50.5168592530198
50.5171354979518
50.5176036587435
50.5183895804744
50.5196952131437
50.5218167876594
50.5251067419393
3509.01450984488
31584.812900479
31556.615999835
3505.96946264188
50.4824752285389
50.4801009241791
50.4785967993307
50.477684533662
50.4771432218143
50.476825388444
50.4766403818689
50.4765339979369
50.4764738643181
50.4764405959682
50.4764226381386
50.4764132000379
50.4764083774614
50.4764059850379
50.4764048346963
50.4764042993931
50.4764040588016
50.4764039548004
50.47640391172
50.4764038944359
50.476403887378
50.4764038844198
50.4764038830802
50.4764038820665
50.476403881091
50.4764038804284
50.4764038827845
50.4764038960676
50.4764039365745
50.4764040405163
50.4764042861908
50.4764048318483
50.4764059969803
50.476408411401
50.4764132691275
50.4764227626393
50.4764408021128
50.4764741773332
50.4765344272855
50.4766408970154
50.4768259323006
50.4771439817043
50.4776870641296
50.4786070809991
50.4801351163142
50.4825657616334
3505.98298789477
31556.8153554237
31537.4549224534
3503.92410839027
50.454039591742
50.4524055400052
50.451394285829
50.4507934687991
50.4504435688463
50.4502414674198
50.4501254121598
50.4500593812976
50.4500223526105
50.4500019841744
50.4499910336312
50.4499852940432
50.4499823667467
50.4499809166707
50.4499802205927
50.4499798976516
50.4499797534104
50.4499796918478
50.4499796670803
50.4499796577554
50.4499796542853
50.4499796530708
50.4499796527447
50.4499796523939
50.4499796517888
50.4499796511716
50.4499796518507
50.4499796586014
50.4499796814722
50.4499797422065
50.449979888167
50.4499802147433
50.4499809147169
50.4499823693853
50.4499853040683
50.4499910568253
50.4500020294385
50.4500224292395
50.4500594911994
50.4501255354769
50.4502415737888
50.4504438118867
50.4507950140687
50.4514016511988
50.4524312883102
50.4541102822426
3503.93512529922
31537.6291142842
31525.0295016631
3502.61704322012
50.4360445022099
50.4349860146485
50.4343455053047
50.4339725547216
50.4337593279855
50.4336381526404
50.4335694936401
50.4335308306125
50.4335093119222
50.4334975367834
50.4334912278666
50.4334879280948
50.4334862472395
50.4334854153346
50.4334850164632
50.4334848318957
50.4334847499558
50.4334847154352
50.4334847019801
50.4334846972983
50.4334846958689
50.4334846955713
50.4334846956471
50.4334846956027
50.4334846952543
50.4334846948026
50.4334846948299
50.433484697948
50.4334847100556
50.4334847436799
50.4334848259196
50.4334850112812
50.4334854099071
50.4334862401052
50.4334879181574
50.4334912149005
50.4334975217071
50.4335092954357
50.4335308081761
50.4335694451313
50.4336380470826
50.4337592500327
50.4339732735982
50.4343501523449
50.4350036494241
50.4360952482944
3502.62529502012
31525.1676463595
31517.3693773383
3501.82347116189
50.4252273429053
50.4245784942729
50.4241942166562
50.4239748131654
50.4238516303587
50.4237827435114
50.4237442257142
50.423722754225
50.4237108897598
50.423704428564
50.4237009769163
50.4236991744502
50.4236982569647
50.4236978030543
50.4236975855893
50.4236974852026
50.4236974409044
50.4236974224951
50.4236974155583
50.4236974134365
50.4236974130656
50.4236974131537
50.4236974132906
50.4236974133022
50.4236974131214
50.4236974127937
50.4236974126226
50.4236974139338
50.4236974199853
50.4236974377109
50.4236974818707
50.4236975821398
50.4236977984143
50.4236982495153
50.4236991623675
50.4237009583971
50.4237044019311
50.423710852427
50.4237226988059
50.4237441315645
50.4237825755766
50.423851413513
50.4239749975446
50.4241968076475
50.424589587477
50.4252611404085
3501.82920979041
31517.4703284346
31512.8661197201
3501.3642409006
50.4190307914626
50.4186527029061
50.4184333308775
50.4183104455628
50.4182426721392
50.4182053713659
50.4181847880853
50.4181734283173
50.4181671949639
50.4181638154933
50.418162014688
50.4181610753696
50.418160597376
50.4181603608962
50.4181602476547
50.4181601954969
50.4181601726258
50.4181601632648
50.4181601598898
50.4181601590558
50.4181601590687
50.4181601592212
50.41816015935
50.4181601593851
50.4181601592936
50.418160159067
50.4181601588831
50.4181601593658
50.4181601622324
50.4181601711678
50.41816019386
50.418160245766
50.4181603580218
50.4181605923742
50.4181610668292
50.4181620010044
50.418163794823
50.4181671643063
50.4181733803634
50.4181847042487
50.4182052172968
50.4182424368922
50.4183103614153
50.4184345908911
50.4186591535931
50.4190518245844
3501.36797466721
31512.9348192824
31510.3345574453
3501.11021096251
50.4156382254846
50.415427989912
50.4153083695042
50.4152425877618
50.4152069375477
50.41518762474
50.415177106997
50.4151713598409
50.4151682277153
50.4151665367094
50.415165637586
50.4151651689475
50.4151649304468
50.4151648124122
50.4151647559031
50.4151647299325
50.4151647186214
50.4151647140705
50.4151647125313
50.4151647122519
50.4151647123443
50.4151647124827
50.4151647125804
50.4151647126161
50.4151647125703
50.4151647124251
50.4151647122794
50.4151647124205
50.4151647137177
50.4151647180418
50.4151647292416
50.4151647550478
50.4151648109887
50.415164927814
50.4151651642831
50.4151656299003
50.4151665247358
50.4151682091438
50.4151713288831
50.4151770489694
50.4151875106585
50.4152067422459
50.4152424141367
50.4153088794411
50.415431470362
50.4156505266525
3501.11249791201
31510.3784409309
31508.9702581579
3500.97553887908
50.4138583975172
50.4137464708703
50.4136839582613
50.4136501890523
50.4136321991855
50.4136226054752
50.4136174491904
50.4136146596103
50.4136131495352
50.4136123375006
50.413611906544
50.4136116820157
50.413611567699
50.4136115110878
50.4136114839863
50.4136114715583
50.413611466185
50.4136114640628
50.4136114634032
50.413611463337
50.4136114634198
50.4136114635185
50.4136114635834
50.4136114636104
50.4136114635877
50.4136114635015
50.413611463407
50.4136114634311
50.4136114639893
50.4136114660013
50.4136114713278
50.413611483689
50.4136115105384
50.4136115665988
50.413611679978
50.4136119030898
50.4136123319489
50.4136131404273
50.4136146429675
50.4136174146164
50.4136225313272
50.4136320595319
50.4136500197791
50.4136841025696
50.4137482150874
50.4138651901871
3500.97686437143
31508.9967341042
31508.2638443638
3500.90695785447
50.4129616125503
50.4129043917789
50.4128729907739
50.4128563170937
50.4128475823093
50.4128429962531
50.4128405637942
50.4128392609428
50.4128385603837
50.4128381850992
50.4128379862543
50.4128378826685
50.4128378298902
50.4128378037305
50.4128377912058
50.4128377854751
50.4128377830171
50.4128377820704
50.4128377818055
50.4128377818022
50.4128377818575
50.4128377819191
50.4128377819584
50.4128377819756
50.4128377819646
50.4128377819166
50.4128377818597
50.4128377818518
50.4128377820833
50.4128377829872
50.4128377854354
50.4128377911562
50.4128378036027
50.4128378295722
50.4128378820193
50.4128379850983
50.4128381831423
50.4128385568227
50.4128392533133
50.4128405453733
50.4128429524011
50.412847492275
50.4128561871711
50.4128729873737
50.4129052018223
50.4129651676524
3500.90768800238
31508.2790079162
31507.9117494306
3500.87334609225
50.4125268371638
50.4124986726606
50.4124834719302
50.4124755327103
50.4124714411565
50.4124693258912
50.4124682187432
50.4124676317079
50.4124673181609
50.4124671508167
50.4124670622736
50.4124670161413
50.412466992613
50.4124669809382
50.4124669753472
50.412466972795
50.4124669717095
50.4124669713039
50.4124669712026
50.4124669712126
50.4124669712467
50.4124669712819
50.4124669713039
50.4124669713138
50.4124669713086
50.4124669712835
50.4124669712517
50.41246697124
50.4124669713325
50.4124669717262
50.4124669728166
50.4124669753813
50.4124669809681
50.4124669926112
50.4124670160787
50.4124670621165
50.4124671504724
50.4124673172346
50.4124676287938
50.4124682098128
50.4124693018195
50.4124713875667
50.4124754456592
50.4124834267299
50.4124990186848
50.4125286062381
3500.87372979557
31507.9200285594
31507.7425861204
3500.85747178568
50.4123237848927
50.4123104068267
50.4123032989411
50.4122996448527
50.4122977914497
50.4122968478038
50.412296360426
50.4122961046345
50.4122959689291
50.4122958967627
50.4122958586253
50.4122958387474
50.4122958285969
50.4122958235536
50.4122958211376
50.4122958200374
50.4122958195736
50.4122958194063
50.4122958193697
50.4122958193789
50.4122958193981
50.4122958194168
50.4122958194284
50.4122958194338
50.4122958194314
50.4122958194189
50.4122958194023
50.412295819394
50.4122958194298
50.4122958195964
50.4122958200682
50.4122958211844
50.4122958236181
50.4122958286817
50.4122958388627
50.4122958587874
50.4122958969627
50.4122959689924
50.4122961038124
50.4122963564568
50.4122968353806
50.4122977615682
50.4122995918041
50.4123032543598
50.4123105404187
50.412324624013
3500.8576647867
31507.7469109426
31507.6642154096
3500.85024699477
50.4122324604982
50.4122263152603
50.4122230980673
50.4122214689626
50.4122206553334
50.4122202472796
50.4122200393204
50.4122199312994
50.4122198743796
50.412219844218
50.4122198282955
50.4122198199916
50.4122198157452
50.4122198136323
50.4122198126198
50.4122198121599
50.4122198119678
50.4122198119011
50.4122198118887
50.4122198118948
50.4122198119049
50.4122198119143
50.4122198119201
50.4122198119228
50.4122198119217
50.4122198119158
50.4122198119078
50.4122198119029
50.4122198119163
50.4122198119851
50.4122198121838
50.4122198126563
50.4122198136871
50.4122198158276
50.4122198201188
50.4122198284926
50.412219844501
50.4122198746796
50.4122199312401
50.412220037702
50.4122202411954
50.4122206395686
50.412221438924
50.4122230659348
50.4122263599504
50.4122328406384
3500.85034018279
31507.6663836598
31507.6292715683
3500.8470874079
50.4121930535012
50.4121903184869
50.4121889063111
50.412188201442
50.4121878546298
50.4121876832565
50.4121875970767
50.4121875527781
50.4121875295964
50.4121875173561
50.4121875109006
50.4121875075315
50.412187505806
50.4121875049462
50.4121875045341
50.4121875043474
50.4121875042702
50.4121875042445
50.4121875042408
50.4121875042442
50.4121875042492
50.4121875042537
50.4121875042564
50.4121875042577
50.4121875042573
50.4121875042547
50.4121875042509
50.4121875042485
50.4121875042534
50.4121875042811
50.4121875043626
50.4121875045575
50.4121875049825
50.4121875058633
50.4121875076236
50.4121875110473
50.4121875175749
50.4121875298635
50.4121875529138
50.4121875964754
50.4121876804081
50.4121878467028
50.4121881854296
50.4121888863942
50.4121903298694
50.4121932182112
3500.84713071035
31507.6303177286
31507.6143899717
3500.84577344103
50.412176948582
50.4121757671782
50.4121751650233
50.4121748685442
50.4121747247562
50.4121746547316
50.4121746199846
50.4121746023125
50.4121745931297
50.4121745882986
50.4121745857533
50.412174584424
50.4121745837422
50.4121745834021
50.4121745832391
50.4121745831656
50.4121745831356
50.412174583126
50.4121745831251
50.4121745831269
50.4121745831293
50.4121745831313
50.4121745831327
50.4121745831333
50.4121745831331
50.412174583132
50.4121745831304
50.4121745831292
50.412174583131
50.4121745831419
50.4121745831744
50.4121745832526
50.4121745834234
50.4121745837764
50.4121745844799
50.4121745858435
50.4121745884355
50.4121745933067
50.4121746024474
50.4121746197851
50.4121746534493
50.4121747209359
50.4121748604378
50.4121751538213
50.4121757679719
50.4121770168958
3500.84579285062
31507.6148769322
31507.608478231
3500.84527053661
50.412170966039
50.4121704699881
50.4121702201874
50.412170098775
50.412170040702
50.4121700128211
50.4121699991697
50.4121699923018
50.4121699887593
50.412169986903
50.4121699859262
50.412169985416
50.4121699851541
50.4121699850235
50.4121699849611
50.4121699849331
50.4121699849219
50.4121699849186
50.4121699849185
50.4121699849194
50.4121699849206
50.4121699849215
50.4121699849222
50.4121699849225
50.4121699849224
50.412169984922
50.4121699849213
50.4121699849208
50.4121699849213
50.4121699849255
50.4121699849381
50.4121699849685
50.4121699850352
50.4121699851729
50.4121699854467
50.4121699859759
50.412169986979
50.4121699888606
50.4121699923923
50.4121699991138
50.4121700122632
50.4121700389297
50.4121700948528
50.4121702143249
50.4121704684111
50.4121709931638
3500.84527894603
31507.6086973789
31507.6064548631
3500.84511326811
50.4121692470446
50.4121690443008
50.4121689433452
50.4121688948733
50.4121688719954
50.4121688611646
50.4121688559325
50.4121688533299
50.4121688519984
50.4121688513041
50.4121688509396
50.4121688507495
50.4121688506521
50.4121688506037
50.4121688505808
50.4121688505707
50.4121688505669
50.4121688505659
50.4121688505661
50.4121688505666
50.4121688505672
50.4121688505676
50.412168850568
50.4121688505681
50.4121688505682
50.412168850568
50.4121688505677
50.4121688505674
50.4121688505676
50.412168850569
50.4121688505736
50.412168850585
50.41216885061
50.412168850662
50.4121688507654
50.4121688509651
50.4121688513432
50.4121688520514
50.4121688533814
50.4121688559218
50.4121688609293
50.4121688712013
50.412168893051
50.4121689404497
50.4121690428064
50.4121692573481
3500.84511679656
31507.6065504049
31507.6060684962
3500.8450990752
50.4121692722098
50.4121691914498
50.4121691516555
50.412169132769
50.412169123969
50.4121691198606
50.4121691179035
50.4121691169421
50.4121691164551
50.4121691162031
50.4121691160715
50.4121691160034
50.4121691159688
50.4121691159519
50.4121691159442
50.4121691159409
50.4121691159399
50.4121691159398
50.4121691159401
50.4121691159404
50.4121691159407
50.412169115941
50.4121691159412
50.4121691159413
50.4121691159414
50.4121691159413
50.4121691159412
50.412169115941
50.412169115941
50.4121691159413
50.4121691159428
50.4121691159466
50.4121691159554
50.4121691159741
50.4121691160115
50.4121691160843
50.4121691162223
50.4121691164813
50.4121691169688
50.4121691179045
50.4121691197642
50.4121691236246
50.4121691319532
50.4121691502939
50.4121691904905
50.4121692759472
3500.84510051136
31507.6061089179
31507.6063524615
3500.8451425008
50.4121699914279
50.4121699600435
50.412169944731
50.4121699375437
50.4121699342371
50.4121699327154
50.4121699320018
50.4121699316566
50.4121699314843
50.4121699313964
50.4121699313513
50.4121699313285
50.4121699313173
50.4121699313121
50.4121699313101
50.4121699313095
50.4121699313094
50.4121699313097
50.41216993131
50.4121699313103
50.4121699313105
50.4121699313107
50.4121699313108
50.412169931311
50.412169931311
50.412169931311
50.4121699313109
50.4121699313108
50.4121699313107
50.4121699313106
50.4121699313108
50.4121699313118
50.4121699313144
50.4121699313203
50.4121699313328
50.4121699313578
50.4121699314058
50.4121699314969
50.4121699316698
50.4121699320046
50.4121699326773
50.4121699340924
50.4121699371911
50.4121699441179
50.4121699595204
50.4121699927183
3500.84514306881
31507.6063690852
31507.6069037888
3500.84520853233
50.4121709796772
50.412170967771
50.4121709620171
50.4121709593458
50.4121709581328
50.4121709575836
50.4121709573311
50.4121709572118
50.412170957154
50.4121709571256
50.4121709571118
50.4121709571053
50.4121709571026
50.4121709571017
50.4121709571018
50.4121709571021
50.4121709571025
50.4121709571029
50.4121709571032
50.4121709571035
50.4121709571037
50.4121709571039
50.412170957104
50.4121709571041
50.4121709571041
50.4121709571041
50.412170957104
50.4121709571039
50.4121709571037
50.4121709571035
50.4121709571032
50.4121709571031
50.4121709571034
50.4121709571047
50.4121709571079
50.4121709571153
50.4121709571304
50.4121709571603
50.4121709572185
50.4121709573336
50.4121709575694
50.4121709580742
50.4121709591986
50.412170961752
50.4121709675131
50.4121709800994
3500.84520875099
31507.6069104454
31507.6075591171
3500.84528321575
50.412172069641
50.4121720652325
50.4121720631232
50.4121720621551
50.4121720617221
50.4121720615303
50.4121720614449
50.4121720614064
50.4121720613891
50.4121720613816
50.4121720613787
50.412172061378
50.4121720613783
50.4121720613789
50.4121720613796
50.4121720613803
50.4121720613809
50.4121720613813
50.4121720613817
50.412172061382
50.4121720613822
50.4121720613823
50.4121720613825
50.4121720613826
50.4121720613826
50.4121720613826
50.4121720613825
50.4121720613824
50.4121720613822
50.4121720613819
50.4121720613814
50.4121720613809
50.4121720613803
50.4121720613799
50.4121720613799
50.412172061381
50.4121720613845
50.4121720613926
50.4121720614101
50.4121720614469
50.4121720615256
50.4121720616995
50.412172062096
50.4121720630132
50.4121720651148
50.4121720697714
3500.84528329786
31507.6075617141
31507.6082539481
3500.84536113327
50.4121731971587
50.4121731955695
50.4121731948183
50.4121731944784
50.4121731943295
50.4121731942659
50.4121731942395
50.4121731942291
50.4121731942257
50.4121731942252
50.412173194226
50.4121731942271
50.4121731942284
50.4121731942295
50.4121731942304
50.4121731942312
50.4121731942319
50.4121731942323
50.4121731942327
50.412173194233
50.4121731942332
50.4121731942334
50.4121731942335
50.4121731942336
50.4121731942336
50.4121731942336
50.4121731942335
50.4121731942334
50.4121731942332
50.4121731942328
50.4121731942324
50.4121731942317
50.4121731942309
50.4121731942298
50.4121731942288
50.4121731942278
50.4121731942273
50.412173194228
50.4121731942315
50.4121731942412
50.4121731942651
50.4121731943216
50.412173194456
50.412173194775
50.4121731955197
50.4121731971972
3500.84536116341
31507.6082549385
31507.608963446
3500.84544023281
50.4121743382318
50.412174337679
50.4121743374226
50.4121743373092
50.4121743372613
50.4121743372425
50.4121743372362
50.4121743372351
50.4121743372361
50.4121743372378
50.4121743372396
50.4121743372413
50.4121743372427
50.412174337244
50.412174337245
50.4121743372458
50.4121743372464
50.4121743372469
50.4121743372473
50.4121743372476
50.4121743372479
50.412174337248
50.4121743372481
50.4121743372482
50.4121743372483
50.4121743372482
50.4121743372482
50.412174337248
50.4121743372478
50.4121743372474
50.4121743372469
50.4121743372462
50.4121743372453
50.4121743372442
50.4121743372428
50.4121743372412
50.4121743372395
50.4121743372379
50.4121743372369
50.4121743372378
50.4121743372431
50.4121743372593
50.4121743373017
50.412174337407
50.41217433766
50.4121743382437
3500.84544024376
31507.6089638155
31507.6096782726
3500.8455197552
50.4121754840932
50.412175483913
50.4121754838329
50.4121754837991
50.4121754837861
50.4121754837822
50.4121754837823
50.412175483784
50.4121754837862
50.4121754837884
50.4121754837903
50.4121754837921
50.4121754837936
50.4121754837948
50.4121754837958
50.4121754837966
50.4121754837972
50.4121754837977
50.412175483798
50.4121754837983
50.4121754837986
50.4121754837988
50.4121754837989
50.412175483799
50.412175483799
50.412175483799
50.4121754837989
50.4121754837988
50.4121754837985
50.4121754837982
50.4121754837977
50.412175483797
50.4121754837961
50.412175483795
50.4121754837936
50.412175483792
50.41217548379
50.4121754837879
50.4121754837857
50.4121754837839
50.4121754837835
50.4121754837864
50.4121754837975
50.4121754838285
50.4121754839074
50.4121754840984
3500.8455197592
31507.6096784092
31507.6103949956
3500.84559942579
50.4121766316117
50.4121766315624
50.4121766315435
50.4121766315366
50.4121766315351
50.4121766315358
50.4121766315376
50.4121766315398
50.4121766315421
50.4121766315442
50.412176631546
50.4121766315477
50.412176631549
50.4121766315501
50.4121766315511
50.4121766315518
50.4121766315524
50.4121766315529
50.4121766315533
50.4121766315536
50.4121766315538
50.412176631554
50.4121766315542
50.4121766315542
50.4121766315543
50.4121766315543
50.4121766315542
50.412176631554
50.4121766315538
50.4121766315535
50.412176631553
50.4121766315523
50.4121766315515
50.4121766315505
50.4121766315492
50.4121766315476
50.4121766315458
50.4121766315437
50.4121766315415
50.4121766315393
50.4121766315373
50.4121766315363
50.4121766315374
50.4121766315435
50.4121766315623
50.4121766316156
3500.84559942738
31507.610395046
31507.6111123801
3500.8456791473
50.4121777796923
50.4121777796877
50.4121777796892
50.4121777796911
50.4121777796928
50.4121777796945
50.4121777796965
50.4121777796985
50.4121777797004
50.4121777797023
50.4121777797039
50.4121777797054
50.4121777797066
50.4121777797076
50.4121777797085
50.4121777797092
50.4121777797098
50.4121777797102
50.4121777797106
50.4121777797109
50.4121777797112
50.4121777797113
50.4121777797115
50.4121777797116
50.4121777797116
50.4121777797116
50.4121777797115
50.4121777797114
50.4121777797111
50.4121777797108
50.4121777797104
50.4121777797098
50.412177779709
50.4121777797081
50.412177779707
50.4121777797056
50.412177779704
50.4121777797022
50.4121777797002
50.4121777796982
50.4121777796962
50.4121777796944
50.4121777796927
50.412177779691
50.4121777796899
50.4121777796962
3500.84567914802
31507.6111123994
31507.611829991
3500.845758886
50.41217892796
50.41217892797
50.4121789279779
50.412178927982
50.4121789279843
50.4121789279859
50.4121789279874
50.412178927989
50.4121789279906
50.4121789279921
50.4121789279935
50.4121789279947
50.4121789279958
50.4121789279968
50.4121789279976
50.4121789279982
50.4121789279988
50.4121789279992
50.4121789279996
50.4121789279999
50.4121789280001
50.4121789280003
50.4121789280005
50.4121789280005
50.4121789280006
50.4121789280006
50.4121789280005
50.4121789280004
50.4121789280002
50.4121789279999
50.4121789279994
50.4121789279989
50.4121789279983
50.4121789279974
50.4121789279964
50.4121789279952
50.4121789279939
50.4121789279924
50.4121789279908
50.4121789279892
50.4121789279877
50.4121789279861
50.412178927984
50.4121789279803
50.4121789279732
50.4121789279641
3500.84575888639
31507.6118299972
31507.612547678
3500.84583863038
50.412180076289
50.4121800763033
50.4121800763125
50.4121800763169
50.4121800763188
50.4121800763199
50.4121800763209
50.412180076322
50.4121800763232
50.4121800763244
50.4121800763255
50.4121800763265
50.4121800763274
50.4121800763283
50.412180076329
50.4121800763296
50.4121800763301
50.4121800763305
50.4121800763309
50.4121800763312
50.4121800763314
50.4121800763316
50.4121800763318
50.4121800763319
50.4121800763319
50.4121800763319
50.4121800763318
50.4121800763317
50.4121800763315
50.4121800763312
50.4121800763309
50.4121800763304
50.4121800763298
50.4121800763291
50.4121800763283
50.4121800763273
50.4121800763262
50.4121800763251
50.4121800763239
50.4121800763228
50.4121800763217
50.4121800763207
50.4121800763191
50.4121800763153
50.4121800763068
50.4121800762932
3500.84583863072
31507.6125476815
31507.6132653902
3500.84591837662
50.4121812246375
50.4121812246525
50.4121812246617
50.4121812246654
50.4121812246667
50.4121812246672
50.4121812246677
50.4121812246684
50.4121812246691
50.41218122467
50.4121812246709
50.4121812246717
50.4121812246725
50.4121812246732
50.4121812246738
50.4121812246744
50.4121812246748
50.4121812246752
50.4121812246756
50.4121812246759
50.4121812246761
50.4121812246763
50.4121812246765
50.4121812246765
50.4121812246766
50.4121812246766
50.4121812246765
50.4121812246764
50.4121812246763
50.412181224676
50.4121812246757
50.4121812246753
50.4121812246748
50.4121812246742
50.4121812246735
50.4121812246727
50.4121812246719
50.4121812246711
50.4121812246703
50.4121812246697
50.4121812246692
50.4121812246688
50.4121812246678
50.4121812246646
50.4121812246563
50.4121812246419
3500.84591837697
31507.6132653936
31507.6139831107
3500.84599812345
50.4121823729923
50.4121823730068
50.4121823730152
50.4121823730182
50.4121823730188
50.4121823730187
50.4121823730187
50.4121823730188
50.4121823730192
50.4121823730198
50.4121823730204
50.4121823730211
50.4121823730217
50.4121823730223
50.4121823730229
50.4121823730233
50.4121823730238
50.4121823730242
50.4121823730245
50.4121823730248
50.412182373025
50.4121823730252
50.4121823730254
50.4121823730254
50.4121823730255
50.4121823730255
50.4121823730255
50.4121823730254
50.4121823730253
50.412182373025
50.4121823730247
50.4121823730244
50.412182373024
50.4121823730235