/*--------------------------------*- C++ -*----------------------------------*\
  =========                 |
  \\      /  F ield         | OpenFOAM: The Open Source CFD Toolbox
   \\    /   O peration     | Website:  https://openfoam.org
    \\  /    A nd           | Version:  10
     \\/     M anipulation  |
\*---------------------------------------------------------------------------*/
FoamFile
{
    format      ascii;
    class       volScalarField;
    location    "10";
    object      p;
}
// * * * * * * * * * * * * * * * * * * * * * * * * * * * * * * * * * * * * * //

dimensions      [1 -1 -2 0 0 0 0];

internalField   nonuniform List<scalar> 
2500
(
100106.643143172
100106.643143706
100106.64314449
100106.643145271
100106.643145893
100106.643146357
100106.643146686
100106.643146915
100106.643147074
100106.643147183
100106.643147259
100106.64314731
100106.643147346
100106.643147371
100106.643147388
100106.643147401
100106.64314741
100106.643147417
100106.643147421
100106.643147425
100106.643147428
100106.643147429
100106.643147431
100106.643147431
100106.643147431
100106.643147431
100106.64314743
100106.643147429
100106.643147427
100106.643147425
100106.643147422
100106.643147418
100106.643147412
100106.643147405
100106.643147395
100106.643147382
100106.643147364
100106.643147338
100106.643147302
100106.643147249
100106.643147173
100106.643147063
100106.643146903
100106.643146672
100106.643146343
100106.643145876
100106.643145249
100106.64314446
100106.643143668
100106.643143137
100106.640891578
100106.640891986
100106.640892637
100106.640893317
100106.640893872
100106.640894299
100106.640894606
100106.640894824
100106.640894976
100106.640895082
100106.640895155
100106.640895205
100106.64089524
100106.640895265
100106.640895283
100106.640895295
100106.640895304
100106.640895311
100106.640895316
100106.64089532
100106.640895322
100106.640895324
100106.640895325
100106.640895326
100106.640895326
100106.640895326
100106.640895325
100106.640895324
100106.640895322
100106.64089532
100106.640895317
100106.640895312
100106.640895307
100106.6408953
100106.64089529
100106.640895277
100106.640895258
100106.640895233
100106.640895197
100106.640895146
100106.640895072
100106.640894965
100106.640894812
100106.640894593
100106.640894284
100106.640893855
100106.640893294
100106.640892607
100106.640891948
100106.640891544
100106.638634764
100106.638635081
100106.638635555
100106.63863608
100106.638636521
100106.63863687
100106.638637127
100106.638637314
100106.638637446
100106.638637539
100106.638637604
100106.63863765
100106.638637683
100106.638637706
100106.638637723
100106.638637735
100106.638637744
100106.638637751
100106.638637756
100106.638637759
100106.638637762
100106.638637764
100106.638637765
100106.638637766
100106.638637766
100106.638637766
100106.638637765
100106.638637764
100106.638637762
100106.638637759
100106.638637756
100106.638637752
100106.638637747
100106.638637739
100106.63863773
100106.638637717
100106.6386377
100106.638637676
100106.638637642
100106.638637596
100106.638637529
100106.638637435
100106.638637302
100106.638637114
100106.638636855
100106.638636503
100106.638636057
100106.638635526
100106.638635045
100106.638634728
100106.636372861
100106.636373075
100106.636373368
100106.63637372
100106.636374023
100106.636374273
100106.636374462
100106.636374604
100106.636374707
100106.636374781
100106.636374835
100106.636374874
100106.636374903
100106.636374923
100106.636374939
100106.63637495
100106.636374958
100106.636374965
100106.63637497
100106.636374973
100106.636374976
100106.636374978
100106.636374979
100106.636374979
100106.63637498
100106.636374979
100106.636374979
100106.636374978
100106.636374976
100106.636374973
100106.63637497
100106.636374966
100106.636374961
100106.636374954
100106.636374945
100106.636374933
100106.636374917
100106.636374896
100106.636374867
100106.636374827
100106.636374772
100106.636374696
100106.636374592
100106.636374449
100106.636374258
100106.636374005
100106.636373698
100106.63637334
100106.636373041
100106.636372824
100106.634106285
100106.634106394
100106.634106525
100106.634106714
100106.634106884
100106.634107035
100106.634107156
100106.634107251
100106.634107323
100106.634107378
100106.63410742
100106.634107451
100106.634107475
100106.634107492
100106.634107506
100106.634107516
100106.634107524
100106.63410753
100106.634107534
100106.634107538
100106.63410754
100106.634107542
100106.634107543
100106.634107544
100106.634107544
100106.634107544
100106.634107543
100106.634107542
100106.63410754
100106.634107538
100106.634107535
100106.634107531
100106.634107526
100106.634107519
100106.634107511
100106.6341075
100106.634107486
100106.634107468
100106.634107444
100106.634107412
100106.63410737
100106.634107314
100106.63410724
100106.634107144
100106.634107021
100106.634106868
100106.634106694
100106.634106501
100106.634106364
100106.63410625
100106.631835696
100106.631835711
100106.631835715
100106.631835766
100106.631835823
100106.631835889
100106.631835948
100106.631836002
100106.631836046
100106.631836083
100106.631836112
100106.631836136
100106.631836154
100106.631836169
100106.63183618
100106.631836189
100106.631836196
100106.631836202
100106.631836206
100106.631836209
100106.631836212
100106.631836213
100106.631836214
100106.631836215
100106.631836215
100106.631836215
100106.631836214
100106.631836213
100106.631836212
100106.631836209
100106.631836206
100106.631836203
100106.631836198
100106.631836192
100106.631836185
100106.631836175
100106.631836163
100106.631836148
100106.631836128
100106.631836104
100106.631836074
100106.631836037
100106.631835991
100106.631835937
100106.631835876
100106.631835808
100106.631835748
100106.631835694
100106.631835688
100106.631835667
100106.629561912
100106.629561855
100106.629561771
100106.62956172
100106.629561693
100106.629561691
100106.629561702
100106.629561721
100106.629561742
100106.629561763
100106.629561782
100106.629561798
100106.629561812
100106.629561824
100106.629561833
100106.629561841
100106.629561847
100106.629561852
100106.629561856
100106.629561859
100106.629561861
100106.629561863
100106.629561864
100106.629561864
100106.629561864
100106.629561864
100106.629561864
100106.629561863
100106.629561861
100106.629561859
100106.629561856
100106.629561853
100106.629561849
100106.629561843
100106.629561836
100106.629561828
100106.629561818
100106.629561806
100106.629561791
100106.629561774
100106.629561755
100106.629561733
100106.629561711
100106.629561692
100106.629561679
100106.62956168
100106.629561705
100106.629561755
100106.629561838
100106.62956189
100106.62728575
100106.627285648
100106.627285514
100106.627285397
100106.627285314
100106.627285266
100106.627285242
100106.627285235
100106.627285237
100106.627285245
100106.627285255
100106.627285266
100106.627285276
100106.627285284
100106.627285292
100106.627285298
100106.627285304
100106.627285308
100106.627285311
100106.627285314
100106.627285316
100106.627285317
100106.627285318
100106.627285319
100106.627285319
100106.627285319
100106.627285318
100106.627285317
100106.627285316
100106.627285314
100106.627285311
100106.627285308
100106.627285304
100106.6272853
100106.627285294
100106.627285287
100106.627285279
100106.627285269
100106.627285259
100106.627285248
100106.627285237
100106.627285229
100106.627285226
100106.627285232
100106.627285255
100106.627285303
100106.627285385
100106.627285502
100106.627285636
100106.627285735
100106.625007927
100106.625007804
100106.625007651
100106.625007501
100106.625007386
100106.625007309
100106.625007262
100106.625007237
100106.625007226
100106.625007224
100106.625007227
100106.625007232
100106.625007238
100106.625007245
100106.62500725
100106.625007255
100106.62500726
100106.625007263
100106.625007266
100106.625007268
100106.62500727
100106.625007271
100106.625007272
100106.625007273
100106.625007273
100106.625007273
100106.625007272
100106.625007271
100106.62500727
100106.625007268
100106.625007266
100106.625007263
100106.62500726
100106.625007256
100106.625007251
100106.625007245
100106.625007239
100106.625007233
100106.625007226
100106.62500722
100106.625007217
100106.625007218
100106.625007229
100106.625007253
100106.6250073
100106.625007377
100106.625007491
100106.625007642
100106.625007797
100106.625007918
100106.62272901
100106.622728888
100106.622728736
100106.622728576
100106.62272845
100106.622728358
100106.622728298
100106.622728261
100106.622728241
100106.622728231
100106.622728228
100106.622728229
100106.622728232
100106.622728236
100106.62272824
100106.622728243
100106.622728247
100106.62272825
100106.622728252
100106.622728254
100106.622728255
100106.622728257
100106.622728257
100106.622728258
100106.622728258
100106.622728258
100106.622728257
100106.622728256
100106.622728255
100106.622728253
100106.622728252
100106.622728249
100106.622728246
100106.622728243
100106.622728239
100106.622728235
100106.62272823
100106.622728226
100106.622728223
100106.622728221
100106.622728224
100106.622728233
100106.622728253
100106.622728289
100106.62272835
100106.622728441
100106.622728569
100106.622728731
100106.622728884
100106.622729006
100106.620449417
100106.620449307
100106.62044917
100106.620449015
100106.620448889
100106.620448793
100106.620448726
100106.620448683
100106.620448656
100106.620448641
100106.620448633
100106.620448631
100106.620448631
100106.620448633
100106.620448635
100106.620448637
100106.62044864
100106.620448642
100106.620448644
100106.620448646
100106.620448647
100106.620448648
100106.620448648
100106.620448649
100106.620448649
100106.620448649
100106.620448648
100106.620448647
100106.620448646
100106.620448645
100106.620448643
100106.620448641
100106.620448639
100106.620448636
100106.620448633
100106.62044863
100106.620448628
100106.620448625
100106.620448625
100106.620448627
100106.620448634
100106.620448649
100106.620448675
100106.620448719
100106.620448785
100106.620448882
100106.620449009
100106.620449166
100106.620449305
100106.620449416
100106.618169429
100106.618169337
100106.618169219
100106.618169079
100106.61816896
100106.618168866
100106.618168798
100106.618168752
100106.618168721
100106.618168702
100106.618168691
100106.618168686
100106.618168683
100106.618168683
100106.618168684
100106.618168685
100106.618168687
100106.618168688
100106.61816869
100106.618168691
100106.618168692
100106.618168693
100106.618168693
100106.618168693
100106.618168693
100106.618168693
100106.618168693
100106.618168692
100106.618168691
100106.61816869
100106.618168689
100106.618168687
100106.618168685
100106.618168683
100106.618168681
100106.618168679
100106.618168678
100106.618168678
100106.61816868
100106.618168685
100106.618168696
100106.618168714
100106.618168745
100106.618168791
100106.618168859
100106.618168954
100106.618169074
100106.618169216
100106.618169336
100106.618169429
100106.615889224
100106.615889151
100106.615889053
100106.615888931
100106.615888824
100106.615888736
100106.61588867
100106.615888622
100106.615888589
100106.615888568
100106.615888555
100106.615888547
100106.615888542
100106.61588854
100106.61588854
100106.61588854
100106.615888541
100106.615888542
100106.615888543
100106.615888543
100106.615888544
100106.615888545
100106.615888545
100106.615888545
100106.615888545
100106.615888545
100106.615888545
100106.615888544
100106.615888543
100106.615888542
100106.615888541
100106.61588854
100106.615888539
100106.615888537
100106.615888536
100106.615888535
100106.615888536
100106.615888537
100106.615888541
100106.615888549
100106.615888562
100106.615888583
100106.615888616
100106.615888663
100106.61588873
100106.615888819
100106.615888927
100106.615889051
100106.61588915
100106.615889224
100106.613608908
100106.613608852
100106.613608773
100106.61360867
100106.613608576
100106.613608495
100106.613608433
100106.613608386
100106.613608352
100106.613608329
100106.613608314
100106.613608304
100106.613608298
100106.613608295
100106.613608293
100106.613608292
100106.613608292
100106.613608293
100106.613608293
100106.613608293
100106.613608294
100106.613608294
100106.613608294
100106.613608294
100106.613608294
100106.613608294
100106.613608294
100106.613608293
100106.613608293
100106.613608292
100106.613608291
100106.61360829
100106.613608289
100106.613608289
100106.613608288
100106.613608289
100106.61360829
100106.613608293
100106.613608299
100106.613608308
100106.613608323
100106.613608346
100106.613608379
100106.613608426
100106.613608489
100106.613608571
100106.613608666
100106.613608771
100106.613608852
100106.613608908
100106.611328541
100106.611328499
100106.611328436
100106.61132835
100106.611328269
100106.611328196
100106.611328138
100106.611328093
100106.61132806
100106.611328036
100106.611328019
100106.611328008
100106.611328001
100106.611327996
100106.611327993
100106.611327992
100106.611327991
100106.611327991
100106.611327991
100106.611327991
100106.611327991
100106.611327991
100106.611327991
100106.611327991
100106.611327991
100106.611327991
100106.611327991
100106.61132799
100106.61132799
100106.611327989
100106.611327989
100106.611327988
100106.611327988
100106.611327988
100106.611327988
100106.611327989
100106.611327992
100106.611327996
100106.611328003
100106.611328014
100106.61132803
100106.611328054
100106.611328087
100106.611328132
100106.611328191
100106.611328264
100106.611328346
100106.611328434
100106.611328498
100106.61132854
100106.609048153
100106.609048123
100106.609048073
100106.609048001
100106.609047931
100106.609047867
100106.609047814
100106.609047771
100106.609047739
100106.609047715
100106.609047697
100106.609047685
100106.609047677
100106.609047671
100106.609047668
100106.609047665
100106.609047664
100106.609047663
100106.609047663
100106.609047663
100106.609047663
100106.609047662
100106.609047662
100106.609047662
100106.609047662
100106.609047662
100106.609047662
100106.609047661
100106.609047661
100106.609047661
100106.60904766
100106.60904766
100106.60904766
100106.609047661
100106.609047662
100106.609047664
100106.609047667
100106.609047672
100106.60904768
100106.609047692
100106.609047709
100106.609047733
100106.609047766
100106.609047808
100106.609047862
100106.609047927
100106.609047997
100106.60904807
100106.609048121
100106.609048151
100106.606767759
100106.606767737
100106.606767698
100106.606767639
100106.606767579
100106.606767523
100106.606767474
100106.606767435
100106.606767404
100106.60676738
100106.606767362
100106.606767349
100106.60676734
100106.606767334
100106.60676733
100106.606767327
100106.606767325
100106.606767323
100106.606767323
100106.606767322
100106.606767322
100106.606767322
100106.606767321
100106.606767321
100106.606767321
100106.606767321
100106.606767321
100106.60676732
100106.60676732
100106.60676732
100106.60676732
100106.60676732
100106.606767321
100106.606767321
100106.606767323
100106.606767326
100106.60676733
100106.606767336
100106.606767344
100106.606767357
100106.606767374
100106.606767398
100106.606767429
100106.606767469
100106.606767518
100106.606767575
100106.606767635
100106.606767695
100106.606767735
100106.606767757
100106.604487367
100106.604487351
100106.604487319
100106.604487271
100106.60448722
100106.604487171
100106.604487127
100106.604487091
100106.604487061
100106.604487038
100106.60448702
100106.604487007
100106.604486998
100106.604486991
100106.604486986
100106.604486982
100106.60448698
100106.604486978
100106.604486977
100106.604486976
100106.604486976
100106.604486975
100106.604486975
100106.604486975
100106.604486974
100106.604486974
100106.604486974
100106.604486974
100106.604486974
100106.604486974
100106.604486974
100106.604486974
100106.604486975
100106.604486976
100106.604486979
100106.604486982
100106.604486986
100106.604486993
100106.604487002
100106.604487015
100106.604487033
100106.604487056
100106.604487085
100106.604487122
100106.604487166
100106.604487216
100106.604487267
100106.604487316
100106.604487348
100106.604487364
100106.602206978
100106.602206966
100106.602206941
100106.602206901
100106.602206858
100106.602206815
100106.602206776
100106.602206742
100106.602206714
100106.602206692
100106.602206675
100106.602206662
100106.602206652
100106.602206644
100106.602206639
100106.602206635
100106.602206632
100106.60220663
100106.602206629
100106.602206628
100106.602206627
100106.602206626
100106.602206626
100106.602206626
100106.602206625
100106.602206625
100106.602206625
100106.602206625
100106.602206625
100106.602206625
100106.602206625
100106.602206626
100106.602206627
100106.602206629
100106.602206631
100106.602206635
100106.60220664
100106.602206647
100106.602206657
100106.60220667
100106.602206687
100106.602206709
100106.602206737
100106.602206771
100106.60220681
100106.602206853
100106.602206897
100106.602206937
100106.602206963
100106.602206974
100106.599926592
100106.599926584
100106.599926563
100106.599926531
100106.599926494
100106.599926456
100106.599926422
100106.599926391
100106.599926365
100106.599926344
100106.599926327
100106.599926314
100106.599926304
100106.599926296
100106.599926291
100106.599926286
100106.599926283
100106.599926281
100106.599926279
100106.599926278
100106.599926277
100106.599926276
100106.599926276
100106.599926275
100106.599926275
100106.599926275
100106.599926275
100106.599926275
100106.599926275
100106.599926275
100106.599926276
100106.599926277
100106.599926278
100106.59992628
100106.599926283
100106.599926287
100106.599926292
100106.5999263
100106.599926309
100106.599926322
100106.599926339
100106.59992636
100106.599926386
100106.599926417
100106.599926452
100106.59992649
100106.599926527
100106.59992656
100106.59992658
100106.599926589
100106.59764621
100106.597646204
100106.597646188
100106.597646161
100106.59764613
100106.597646097
100106.597646066
100106.597646038
100106.597646014
100106.597645995
100106.597645978
100106.597645965
100106.597645955
100106.597645948
100106.597645942
100106.597645937
100106.597645934
100106.597645931
100106.597645929
100106.597645928
100106.597645927
100106.597645926
100106.597645925
100106.597645925
100106.597645925
100106.597645924
100106.597645924
100106.597645924
100106.597645925
100106.597645925
100106.597645926
100106.597645927
100106.597645928
100106.597645931
100106.597645934
100106.597645938
100106.597645944
100106.597645951
100106.597645961
100106.597645974
100106.59764599
100106.597646009
100106.597646033
100106.597646061
100106.597646092
100106.597646125
100106.597646157
100106.597646184
100106.5976462
100106.597646207
100106.595365832
100106.595365827
100106.595365814
100106.595365792
100106.595365765
100106.595365737
100106.59536571
100106.595365685
100106.595365663
100106.595365644
100106.595365628
100106.595365616
100106.595365606
100106.595365598
100106.595365592
100106.595365588
100106.595365584
100106.595365581
100106.595365579
100106.595365578
100106.595365576
100106.595365575
100106.595365575
100106.595365574
100106.595365574
100106.595365574
100106.595365574
100106.595365574
100106.595365574
100106.595365575
100106.595365575
100106.595365577
100106.595365578
100106.595365581
100106.595365584
100106.595365588
100106.595365594
100106.595365602
100106.595365611
100106.595365624
100106.595365639
100106.595365658
100106.59536568
100106.595365705
100106.595365732
100106.595365761
100106.595365787
100106.59536581
100106.595365823
100106.595365828
100106.593085456
100106.593085453
100106.593085442
100106.593085423
100106.593085401
100106.593085376
100106.593085352
100106.59308533
100106.59308531
100106.593085292
100106.593085278
100106.593085266
100106.593085256
100106.593085248
100106.593085242
100106.593085238
100106.593085234
100106.593085231
100106.593085229
100106.593085227
100106.593085226
100106.593085225
100106.593085224
100106.593085223
100106.593085223
100106.593085223
100106.593085223
100106.593085223
100106.593085223
100106.593085224
100106.593085225
100106.593085226
100106.593085228
100106.593085231
100106.593085234
100106.593085239
100106.593085244
100106.593085252
100106.593085261
100106.593085273
100106.593085288
100106.593085305
100106.593085325
100106.593085348
100106.593085372
100106.593085396
100106.593085419
100106.593085438
100106.593085448
100106.593085452
100106.590805082
100106.59080508
100106.590805071
100106.590805056
100106.590805037
100106.590805016
100106.590804995
100106.590804974
100106.590804956
100106.59080494
100106.590804927
100106.590804915
100106.590804906
100106.590804898
100106.590804892
100106.590804887
100106.590804884
100106.590804881
100106.590804878
100106.590804877
100106.590804875
100106.590804874
100106.590804873
100106.590804873
100106.590804872
100106.590804872
100106.590804872
100106.590804872
100106.590804873
100106.590804873
100106.590804874
100106.590804876
100106.590804878
100106.59080488
100106.590804884
100106.590804888
100106.590804894
100106.590804902
100106.590804911
100106.590804922
100106.590804935
100106.590804951
100106.59080497
100106.59080499
100106.590805011
100106.590805032
100106.590805051
100106.590805067
100106.590805076
100106.590805078
100106.588524711
100106.588524709
100106.588524702
100106.588524689
100106.588524673
100106.588524655
100106.588524637
100106.588524619
100106.588524602
100106.588524587
100106.588524575
100106.588524564
100106.588524555
100106.588524548
100106.588524542
100106.588524537
100106.588524533
100106.58852453
100106.588524528
100106.588524526
100106.588524524
100106.588524523
100106.588524522
100106.588524522
100106.588524521
100106.588524521
100106.588524521
100106.588524521
100106.588524522
100106.588524523
100106.588524524
100106.588524525
100106.588524527
100106.58852453
100106.588524534
100106.588524538
100106.588524544
100106.588524551
100106.58852456
100106.58852457
100106.588524583
100106.588524597
100106.588524614
100106.588524632
100106.58852465
100106.588524669
100106.588524685
100106.588524697
100106.588524705
100106.588524706
100106.58624434
100106.586244339
100106.586244334
100106.586244324
100106.58624431
100106.586244294
100106.586244278
100106.586244262
100106.586244248
100106.586244234
100106.586244222
100106.586244212
100106.586244204
100106.586244197
100106.586244191
100106.586244186
100106.586244183
100106.58624418
100106.586244177
100106.586244175
100106.586244174
100106.586244172
100106.586244172
100106.586244171
100106.586244171
100106.58624417
100106.58624417
100106.586244171
100106.586244171
100106.586244172
100106.586244173
100106.586244175
100106.586244177
100106.586244179
100106.586244183
100106.586244187
100106.586244193
100106.5862442
100106.586244208
100106.586244218
100106.586244229
100106.586244243
100106.586244258
100106.586244273
100106.58624429
100106.586244305
100106.586244319
100106.586244329
100106.586244335
100106.586244336
100106.583963971
100106.583963971
100106.583963967
100106.583963958
100106.583963947
100106.583963934
100106.58396392
100106.583963906
100106.583963893
100106.583963881
100106.58396387
100106.58396386
100106.583963852
100106.583963846
100106.58396384
100106.583963836
100106.583963832
100106.583963829
100106.583963826
100106.583963824
100106.583963823
100106.583963822
100106.583963821
100106.58396382
100106.58396382
100106.583963819
100106.583963819
100106.58396382
100106.58396382
100106.583963821
100106.583963822
100106.583963824
100106.583963826
100106.583963829
100106.583963832
100106.583963836
100106.583963842
100106.583963848
100106.583963856
100106.583963865
100106.583963876
100106.583963888
100106.583963901
100106.583963915
100106.583963929
100106.583963942
100106.583963954
100106.583963962
100106.583963966
100106.583963967
100106.581683603
100106.581683604
100106.581683601
100106.581683594
100106.581683585
100106.581683574
100106.581683562
100106.581683549
100106.581683537
100106.581683527
100106.581683517
100106.581683508
100106.581683501
100106.581683494
100106.581683489
100106.581683484
100106.581683481
100106.581683478
100106.581683475
100106.581683473
100106.581683472
100106.581683471
100106.58168347
100106.581683469
100106.581683469
100106.581683469
100106.581683469
100106.581683469
100106.581683469
100106.58168347
100106.581683471
100106.581683473
100106.581683475
100106.581683478
100106.581683481
100106.581683485
100106.58168349
100106.581683496
100106.581683504
100106.581683512
100106.581683522
100106.581683533
100106.581683544
100106.581683557
100106.581683569
100106.58168358
100106.581683589
100106.581683596
100106.581683599
100106.581683599
100106.579403236
100106.579403237
100106.579403235
100106.57940323
100106.579403223
100106.579403213
100106.579403203
100106.579403193
100106.579403182
100106.579403172
100106.579403163
100106.579403155
100106.579403149
100106.579403143
100106.579403138
100106.579403133
100106.57940313
100106.579403127
100106.579403124
100106.579403123
100106.579403121
100106.57940312
100106.579403119
100106.579403118
100106.579403118
100106.579403118
100106.579403118
100106.579403118
100106.579403118
100106.579403119
100106.57940312
100106.579403122
100106.579403124
100106.579403127
100106.57940313
100106.579403134
100106.579403139
100106.579403144
100106.579403151
100106.579403159
100106.579403168
100106.579403177
100106.579403188
100106.579403198
100106.579403208
100106.579403218
100106.579403225
100106.57940323
100106.579403233
100106.579403232
100106.57712287
100106.577122872
100106.577122871
100106.577122867
100106.577122861
100106.577122854
100106.577122845
100106.577122836
100106.577122827
100106.577122818
100106.57712281
100106.577122803
100106.577122796
100106.577122791
100106.577122786
100106.577122782
100106.577122779
100106.577122776
100106.577122773
100106.577122772
100106.57712277
100106.577122769
100106.577122768
100106.577122767
100106.577122767
100106.577122767
100106.577122767
100106.577122767
100106.577122767
100106.577122768
100106.577122769
100106.577122771
100106.577122773
100106.577122775
100106.577122778
100106.577122782
100106.577122787
100106.577122792
100106.577122798
100106.577122805
100106.577122813
100106.577122822
100106.577122831
100106.57712284
100106.577122849
100106.577122856
100106.577122862
100106.577122866
100106.577122867
100106.577122866
100106.574842505
100106.574842507
100106.574842506
100106.574842504
100106.5748425
100106.574842494
100106.574842487
100106.574842479
100106.574842471
100106.574842463
100106.574842456
100106.57484245
100106.574842444
100106.574842439
100106.574842434
100106.574842431
100106.574842427
100106.574842425
100106.574842422
100106.57484242
100106.574842419
100106.574842418
100106.574842417
100106.574842416
100106.574842416
100106.574842416
100106.574842416
100106.574842416
100106.574842416
100106.574842417
100106.574842418
100106.57484242
100106.574842422
100106.574842424
100106.574842427
100106.57484243
100106.574842435
100106.57484244
100106.574842445
100106.574842452
100106.574842459
100106.574842466
100106.574842474
100106.574842482
100106.574842489
100106.574842495
100106.574842499
100106.574842502
100106.574842502
100106.5748425
100106.57256214
100106.572562143
100106.572562143
100106.572562142
100106.572562139
100106.572562134
100106.572562129
100106.572562122
100106.572562115
100106.572562109
100106.572562102
100106.572562097
100106.572562091
100106.572562087
100106.572562082
100106.572562079
100106.572562076
100106.572562073
100106.572562071
100106.572562069
100106.572562068
100106.572562067
100106.572562066
100106.572562065
100106.572562065
100106.572562065
100106.572562065
100106.572562065
100106.572562065
100106.572562066
100106.572562067
100106.572562069
100106.57256207
100106.572562073
100106.572562075
100106.572562079
100106.572562082
100106.572562087
100106.572562092
100106.572562098
100106.572562104
100106.57256211
100106.572562117
100106.572562124
100106.572562129
100106.572562134
100106.572562137
100106.572562138
100106.572562138
100106.572562135
100106.570281775
100106.570281779
100106.57028178
100106.57028178
100106.570281779
100106.570281775
100106.570281771
100106.570281765
100106.57028176
100106.570281754
100106.570281749
100106.570281743
100106.570281739
100106.570281734
100106.570281731
100106.570281727
100106.570281724
100106.570281722
100106.57028172
100106.570281718
100106.570281717
100106.570281716
100106.570281715
100106.570281714
100106.570281714
100106.570281713
100106.570281713
100106.570281714
100106.570281714
100106.570281715
100106.570281716
100106.570281717
100106.570281719
100106.570281721
100106.570281724
100106.570281727
100106.57028173
100106.570281734
100106.570281739
100106.570281744
100106.570281749
100106.570281755
100106.57028176
100106.570281766
100106.57028177
100106.570281773
100106.570281775
100106.570281775
100106.570281774
100106.57028177
100106.568001411
100106.568001415
100106.568001418
100106.568001419
100106.568001419
100106.568001417
100106.568001413
100106.568001409
100106.568001404
100106.568001399
100106.568001395
100106.56800139
100106.568001386
100106.568001382
100106.568001379
100106.568001376
100106.568001373
100106.568001371
100106.568001369
100106.568001367
100106.568001366
100106.568001365
100106.568001364
100106.568001363
100106.568001363
100106.568001362
100106.568001362
100106.568001363
100106.568001363
100106.568001364
100106.568001365
100106.568001366
100106.568001368
100106.56800137
100106.568001372
100106.568001375
100106.568001378
100106.568001381
100106.568001385
100106.56800139
100106.568001394
100106.568001399
100106.568001404
100106.568001408
100106.568001411
100106.568001413
100106.568001414
100106.568001413
100106.56800141
100106.568001406
100106.565721047
100106.565721053
100106.565721056
100106.565721059
100106.565721059
100106.565721058
100106.565721056
100106.565721052
100106.565721049
100106.565721045
100106.565721041
100106.565721037
100106.565721033
100106.56572103
100106.565721026
100106.565721024
100106.565721021
100106.565721019
100106.565721017
100106.565721016
100106.565721014
100106.565721013
100106.565721012
100106.565721012
100106.565721011
100106.565721011
100106.565721011
100106.565721011
100106.565721012
100106.565721013
100106.565721013
100106.565721015
100106.565721016
100106.565721018
100106.56572102
100106.565721023