/*--------------------------------*- C++ -*----------------------------------*\
  =========                 |
  \\      /  F ield         | OpenFOAM: The Open Source CFD Toolbox
   \\    /   O peration     | Website:  https://openfoam.org
    \\  /    A nd           | Version:  10
     \\/     M anipulation  |
\*---------------------------------------------------------------------------*/
FoamFile
{
    format      ascii;
    class       volScalarField;
    location    "10";
    object      p_rgh;
}
// * * * * * * * * * * * * * * * * * * * * * * * * * * * * * * * * * * * * * //

dimensions      [1 -1 -2 0 0 0 0];

internalField   nonuniform List<scalar> 
2500
(
106.756753015317
106.756753764144
106.756757100244
106.756760166143
106.756762438381
106.756764004444
106.7567650415
106.756765717291
106.756766150109
106.756766423394
106.756766594059
106.756766699589
106.75676676468
106.756766805265
106.756766830978
106.756766847742
106.756766858845
106.756766866543
106.756766872059
106.756766875973
106.756766878796
106.756766880746
106.756766882056
106.756766882769
106.756766883016
106.756766882783
106.75676688207
106.756766880862
106.756766879073
106.756766876613
106.756766873281
106.756766868828
106.756766862789
106.756766854465
106.756766842576
106.75676682507
106.756766798411
106.756766756735
106.756766690101
106.756766583087
106.756766411185
106.756766136779
106.756765704064
106.756765029611
106.756763993733
106.75676242738
106.756760146498
106.75675706059
106.756753711423
106.756753005582
106.756988153225
106.75699307918
106.757001533333
106.757008895423
106.757014296149
106.757017994954
106.757020438439
106.757022021076
106.757023025915
106.757023651255
106.757024032297
106.757024259859
106.757024393504
106.757024471328
106.757024516643
106.75702454336
106.75702455944
106.757024569524
106.757024576116
106.757024580555
106.75702458361
106.757024585677
106.75702458703
106.757024587772
106.75702458802
106.757024587801
106.757024587074
106.757024585851
106.757024584018
106.757024581442
106.757024577877
106.757024572857
106.75702456561
106.757024554725
106.757024537626
106.757024509687
106.757024462771
106.75702438294
106.757024246792
106.757024016726
106.75702363372
106.757023007624
106.75702200472
106.75702042722
106.757017989978
106.757014291798
106.757008871064
106.757001460413
106.756992974493
106.756988266832
106.757246241046
106.757256462442
106.757269179972
106.757279732468
106.75728735044
106.757292518596
106.757295910313
106.757298094162
106.757299473364
106.757300326877
106.757300843296
106.757301148959
106.757301326288
106.75730142773
106.757301485413
106.757301518373
106.757301537538
106.757301549049
106.757301556281
106.757301561011
106.757301564168
106.757301566293
106.757301567661
106.757301568432
106.757301568679
106.757301568447
106.757301567734
106.757301566497
106.757301564649
106.757301562029
106.757301558333
106.757301553007
106.757301545076
106.757301532678
106.757301512393
106.757301477992
106.757301418416
106.757301314559
106.757301134319
106.757300825673
106.757300306897
106.7572994527
106.757298076045
106.757295898497
106.757292513677
106.757287341708
106.757279686368
106.757269047564
106.757256249868
106.757246290785
106.757502378765
106.757516838945
106.757531821801
106.757543701489
106.757552068273
106.757557634584
106.757561225051
106.757563501102
106.75756491888
106.757565785709
106.757566304557
106.75756660875
106.757566783737
106.757566883098
106.757566939224
106.757566971151
106.757566989661
106.757567000779
106.757567007779
106.757567012319
106.757567015404
106.75756701747
106.757567018809
106.757567019566
106.757567019798
106.757567019566
106.757567018853
106.75756701763
106.75756701584
106.757567013279
106.757567009685
106.757567004533
106.757566996879
106.757566984932
106.757566965389
106.757566932152
106.757566874308
106.757566772751
106.757566595072
106.757566288012
106.757565766646
106.757564898624
106.757563482199
106.757561210266
106.757557622637
106.757552043666
106.7575436201
106.757531615163
106.757516484053
106.757502187043
106.757735671752
106.757752261125
106.757767532676
106.757779136271
106.757787096343
106.757792280259
106.757795561978
106.75779760853
106.75779886586
106.757799626008
106.757800077001
106.757800339721
106.757800490319
106.757800575768
106.757800624197
106.757800651947
106.757800668231
106.757800678199
106.757800684558
106.757800688792
106.757800691674
106.757800693638
106.757800694904
106.757800695617
106.75780069585
106.757800695617
106.757800694919
106.75780069374
106.757800692008
106.757800689564
106.757800686159
106.757800681386
106.757800674401
106.757800663734
106.757800646563
106.757800617721
106.757800567924
106.757800480715
106.757800327992
106.757800062886
106.757799609608
106.757798847961
106.757797590719
106.757795545607
106.757792261997
106.757787057402
106.757779025909
106.757767266434
106.757751776327
106.757735185849
106.75793258223
106.75794906597
106.757962999371
106.757973174244
106.757979968868
106.757984296157
106.75798698279
106.757988630663
106.757989629594
106.757990227488
106.757990579819
106.757990784419
106.757990901795
106.757990968763
106.757991007165
106.75799102959
106.75799104308
106.757991051563
106.757991057151
106.757991060949
106.757991063583
106.757991065402
106.757991066595
106.757991067279
106.757991067483
106.75799106725
106.757991066581
106.757991065446
106.757991063787
106.757991061488
106.757991058344
106.757991054023
106.757991047882
106.757991038758
106.757991024555
106.757991001272
106.757990961851
106.757990893602
106.757990774669
106.757990568323
106.757990214173
106.757989614824
106.757988615223
106.757986966812
106.757984275158
106.757979923015
106.757973051295
106.757962706106
106.757948504019
106.757931858185
106.758087696828
106.758102354914
106.758113948745
106.758122104482
106.758127404362
106.75813070219
106.75813270871
106.758133918804
106.758134642776
106.758135072232
106.758135324111
106.758135470387
106.758135554774
106.758135603537
106.758135632088
106.75813564923
106.75813565994
106.758135666925
106.758135671698
106.758135675031
106.758135677417
106.758135679091
106.758135680182
106.758135680793
106.758135680968
106.75813568075
106.758135680095
106.758135679018
106.758135677475
106.758135675336
106.75813567247
106.758135668628
106.758135663345
106.758135655778
106.758135644472
106.75813562666
106.758135597353
106.758135547672
106.758135462223
106.758135314725
106.758135061551
106.758134630902
106.758133906027
106.758132694609
106.758130682036
106.758127359702
106.758121986553
106.758113664793
106.758101785003
106.758086851507
106.75820236381
106.758214255518
106.758223159704
106.758229201849
106.758233020431
106.758235338653
106.758236719019
106.758237536647
106.758238019233
106.758238303111
106.758238469134
106.75823856589
106.758238622351
106.758238655661
106.758238675771
106.758238688344
106.758238696566
106.758238702198
106.758238706185
106.758238709081
106.758238711176
106.758238712675
106.75823871365
106.758238714217
106.758238714363
106.75823871413
106.758238713519
106.758238712515
106.758238711074
106.758238709124
106.758238706549
106.758238703173
106.758238698676
106.75823869255
106.758238683789
106.758238670664
106.758238649956
106.758238615992
106.758238558788
106.758238461203
106.758238294278
106.758238009541
106.758237526185
106.758236707232
106.758235321497
106.758232982495
106.758229101542
106.758222913035
106.758213738562
106.758201521632
106.758282274459
106.758291187638
106.758297552646
106.758301719485
106.758304276809
106.758305787196
106.75830666472
106.758307173674
106.758307469412
106.75830764178
106.758307742406
106.758307801501
106.758307836601
106.758307857963
106.758307871438
106.758307880315
106.758307886455
106.758307890879
106.758307894168
106.758307896613
106.758307898446
106.758307899741
106.758307900614
106.758307901095
106.758307901211
106.758307900993
106.75830790044
106.758307899494
106.758307898184
106.758307896409
106.758307894124
106.758307891214
106.75830788746
106.758307882556
106.75830787592
106.758307866548
106.758307852564
106.758307830693
106.758307795026
106.758307735348
106.758307634111
106.758307461147
106.758307164913
106.758306655029
106.758305773648
106.758304247705
106.758301642229
106.75829735749
106.758290761398
106.758281529503
106.758334979473
106.758341207082
106.75834546765
106.758348153788
106.758349749289
106.758350660632
106.758351173674
106.758351462791
106.75835162701
106.758351721379
106.758351776298
106.758351808894
106.758351828801
106.758351841476
106.758351849974
106.758351855984
106.758351860422
106.758351863813
106.758351866432
106.758351868455
106.758351869998
106.758351871133
106.758351871875
106.758351872268
106.75835187237
106.758351872137
106.758351871598
106.758351870754
106.758351869561
106.758351867989
106.75835186601
106.758351863537
106.758351860466
106.758351856624
106.75835185172
106.758351845245
106.758351836295
106.75835182317
106.758351802797
106.758351769749
106.758351714379
106.758351619632
106.758351455137
106.758351165568
106.758350650227
106.758349728552
106.758348099014
106.75834532539
106.758340883767
106.758334381098
106.758367990406
106.758372073411
106.758374755053
106.758376375437
106.758377300081
106.758377804188
106.758378074534
106.758378219412
106.758378298051
106.758378341707
106.758378366721
106.758378381724
106.7583783913
106.758378397892
106.758378402737
106.758378406535
106.758378409562
106.758378412051
106.758378414088
106.758378415689
106.75837841694
106.758378417871
106.758378418483
106.758378418817
106.758378418861
106.758378418643
106.758378418148
106.758378417391
106.758378416343
106.75837841499
106.758378413288
106.758378411221
106.758378408776
106.758378405852
106.758378402359
106.758378398154
106.758378392857
106.758378385857
106.758378375875
106.758378360479
106.758378335129
106.758378291182
106.758378212413
106.758378067476
106.758377796054
106.758377285849
106.75837633913
106.758374658515
106.758371845557
106.758367547416
106.758387682523
106.758390206916
106.758391797383
106.758392708914
106.758393200464
106.758393448181
106.758393568671
106.758393625569
106.758393652213
106.758393664888
106.758393671334
106.758393675118
106.758393677868
106.758393680211
106.758393682408
106.758393684446
106.758393686338
106.758393688026
106.758393689481
106.758393690703
106.758393691649
106.758393692391
106.758393692857
106.758393693104
106.758393693104
106.758393692886
106.758393692449
106.758393691794
106.758393690878
106.758393689714
106.758393688331
106.758393686687
106.758393684795
106.758393682685
106.758393680386
106.758393677912
106.758393675322
106.758393672571
106.758393669457
106.758393665295
106.758393658558
106.758393645665
106.758393618991
106.758393562239
106.758393441487
106.758393190656
106.758392685937
106.758391735813
106.758390056479
106.758387376991
106.758398897422
106.758400374485
106.758401262879
106.758401735191
106.758401966406
106.758402064079
106.758402098567
106.758402105464
106.758402102525
106.758402097257
106.758402092644
106.758402089457
106.758402087726
106.758402087115
106.758402087289
106.758402087944
106.758402088846
106.758402089807
106.758402090738
106.758402091567
106.75840209228
106.75840209279
106.758402093124
106.758402093285
106.758402093255
106.758402093052
106.758402092644
106.758402092077
106.758402091305
106.758402090374
106.758402089254
106.758402088002
106.758402086649
106.758402085266
106.758402083957
106.758402082924
106.758402082341
106.758402082574
106.758402083957
106.758402086794
106.758402091145
106.758402096224
106.758402099178
106.758402092528
106.758402058229
106.75840195929
106.758401720886
106.758401225481
106.758400280683
106.7583986994
106.758405005676
106.758405825283
106.758406290159
106.758406508132
106.758406593639
106.758406609981
106.758406598907
106.758406579567
106.758406560912
106.75840654585
106.758406534864
106.758406527413
106.758406522713
106.758406519977
106.758406518609
106.758406518129
106.758406518158
106.758406518478
106.758406518929
106.758406519381
106.758406519803
106.758406520123
106.758406520312
106.758406520385
106.758406520326
106.758406520108
106.758406519759
106.758406519279
106.758406518667
106.758406517925
106.75840651711
106.758406516237
106.758406515393
106.758406514651
106.758406514229
106.758406514331
106.758406515321
106.758406517678
106.758406522058
106.758406529203
106.758406539957
106.758406554858
106.758406573528
106.758406593115
106.758406604567
106.758406588007
106.758406499022
106.758406268156
106.75840576952
106.758404884065
106.758408189373
106.758408620764
106.758408845228
106.758408925787
106.758408935973
106.758408912239
106.758408879497
106.758408847803
106.75840882161
106.758408801543
106.758408787035
106.75840877695
106.758408770256
106.758408765992
106.758408763402
106.758408761947
106.758408761249
106.758408760972
106.758408760972
106.758408761089
106.758408761234
106.75840876135
106.758408761423
106.758408761409
106.758408761292
106.758408761089
106.758408760797
106.75840876039
106.758408759924
106.758408759386
106.758408758848
106.758408758324
106.758408757931
106.758408757814
106.758408758134
106.758408759211
106.758408761423
106.758408765352
106.758408771741
106.758408781534
106.758408795838
106.758408815775
106.758408841983
106.75840887391
106.758408907073
106.758408931055
106.758408919486
106.758408832247
106.758408588677
106.758408117952
106.758409775241
106.758409989954
106.758410085997
106.758410098046
106.75841007322
106.758410032548
106.758409991351
106.758409955059
106.758409925882
106.758409903574
106.758409887188
106.758409875547
106.758409867485
106.758409862057
106.758409858507
106.758409856266
106.758409854898
106.758409854112
106.758409853675
106.758409853457
106.758409853355
106.758409853297
106.758409853224
106.758409853122
106.758409852977
106.758409852773
106.758409852511
106.758409852206
106.758409851886
106.758409851551
106.758409851245
106.758409851071
106.758409851114
106.758409851522
106.758409852511
106.758409854403
106.758409857604
106.758409862712
106.758409870483
106.758409881877
106.758409898044
106.75840992025
106.758409949442
106.758409985938
106.758410027527
106.758410068651
106.758410093127
106.75841007795
106.758409971648
106.758409734583
106.758410526032
106.758410626207
106.758410657989
106.758410639464
106.758410601251
106.758410555747
106.758410512994
106.758410476104
106.758410446419
106.758410423427
106.758410406212
106.758410393639
106.758410384646
106.758410378374
106.758410374052
106.758410371142
106.758410369192
106.75841036794
106.75841036714
106.75841036663
106.758410366281
106.758410366048
106.758410365859
106.75841036567
106.758410365481
106.758410365292
106.758410365073
106.758410364855
106.758410364651
106.758410364491
106.758410364448
106.758410364579
106.758410364986
106.758410365874
106.758410367445
106.758410370021
106.758410374008
106.758410379975
106.758410388691
106.758410401031
106.758410418057
106.758410440962
106.758410470662
106.758410507726
106.758410550843
106.758410596813
106.758410635171
106.758410652386
106.758410615395
106.758410503084
106.758410858718
106.75841090153
106.758410903669
106.758410874143
106.758410833267
106.758410788767
106.758410747745
106.758410712282
106.758410683353
106.758410660565
106.758410643146
106.758410630093
106.758410620532
106.758410613591
106.758410608672
106.758410605209
106.758410602793
106.758410601135
106.758410599985
106.758410599185
106.758410598632
106.758410598224
106.758410597919
106.758410597657
106.758410597438
106.758410597235
106.758410597075
106.758410596929
106.758410596842
106.758410596856
106.758410597031
106.758410597438
106.758410598224
106.758410599519
106.758410601586
106.7584106047
106.758410609313
106.758410615948
106.758410625247
106.758410638082
106.758410655355
106.758410678056
106.758410706985
106.758410742594
106.758410783936
106.758410828857
106.758410870039
106.758410899187
106.758410894516
106.758410845374
106.758410990762
106.758411006507
106.758410996612
106.758410965369
106.758410926646
106.758410885683
106.758410847804
106.758410814655
106.758410787166
106.758410765076
106.758410747832
106.758410734619
106.758410724709
106.758410717346
106.758410711962
106.758410708047
106.758410705239
106.758410703216
106.758410701776
106.758410700728
106.758410699986
106.758410699418
106.758410698996
106.758410698676
106.758410698429
106.758410698225
106.758410698094
106.758410698021
106.75841069805
106.758410698225
106.758410698589
106.758410699258
106.758410700335
106.758410701994
106.758410704468
106.758410708062
106.758410713126
106.758410720213
106.758410729875
106.758410742885
106.758410759983
106.758410781986
106.758410809489
106.758410842755
106.758410880895
106.758410922237
106.75841096128
106.758410992523
106.758411001283
106.758410982336
106.758411030823
106.758411034694
106.758411021132
106.758410992115
106.758410957395
106.758410920767
106.758410886483
106.758410856011
106.758410830284
106.758410809198
106.758410792405
106.758410779279
106.758410769195
106.758410761569
106.75841075585
106.758410751601
106.758410748444
106.75841074613
106.758410744427
106.758410743176
106.758410742244
106.758410741561
106.758410741037
106.758410740658
106.758410740367
106.758410740178
106.758410740062
106.758410740062
106.758410740193
106.758410740498
106.758410741051
106.758410741939
106.758410743278
106.758410745242
106.758410748051
106.758410751994
106.758410757422
106.758410764771
106.758410774608
106.758410787545
106.758410804192
106.758410825205
106.758410850947
106.758410881535
106.758410916009
106.758410952942
106.758410987983
106.75841101713
106.758411030198
106.758411024741
106.758411030911
106.75841103011
106.758411016548
106.758410991097
106.758410960771
106.758410928538
106.758410897892
106.758410870141
106.758410846291
106.758410826355
106.758410810202
106.758410797338
106.758410787283
106.758410779512
106.75841077356
106.758410769064
106.758410765658
106.758410763097
106.758410761191
106.75841075975
106.758410758674
106.758410757859
106.758410757247
106.758410756811
106.758410756491
106.758410756302
106.758410756214
106.758410756272
106.758410756505
106.758410756927
106.75841075764
106.758410758703
106.75841076026
106.758410762486
106.758410765557
106.758410769748
106.758410775408
106.758410782917
106.75841079274
106.758410805429
106.758410821451
106.758410841299
106.75841086515
106.758410892988
106.758410923809
106.758410956289
106.758410986862
106.758411012474
106.758411025847
106.758411025847
106.758411014875
106.758411012663
106.758411000497
106.7584109788
106.758410952665
106.758410924551
106.758410897324
106.758410872251
106.758410850292
106.758410831637
106.758410816241
106.758410803784
106.758410793875
106.758410786075
106.758410780007
106.758410775336
106.758410771741
106.758410768991
106.75841076691
106.758410765309
106.758410764101
106.758410763185
106.758410762501
106.758410762006
106.758410761671
106.758410761468
106.758410761424
106.75841076154
106.758410761831
106.75841076237
106.758410763214
106.758410764436
106.758410766182
106.758410768583
106.758410771843
106.758410776223
106.758410782
106.758410789538
106.758410799244
106.758410811512
106.758410826791
106.758410845374
106.758410867318
106.758410892449
106.758410919821
106.758410948139
106.758410974464
106.758410996306
106.758411008399
106.758411010233
106.758410993207
106.758410990908
106.758410980532
106.758410962299
106.758410939961
106.758410915572
106.758410891503
106.758410868963
106.758410848895
106.75841083155
106.758410817012
106.758410805051
106.758410795373
106.758410787661
106.758410781564
106.758410776791
106.758410773065
106.758410770184
106.758410767958
106.758410766241
106.758410764931
106.758410763927
106.75841076317
106.758410762632
106.758410762268
106.758410762079
106.75841076205
106.758410762195
106.758410762573
106.758410763199
106.758410764145
106.758410765498
106.758410767376
106.758410769922
106.758410773327
106.758410777795
106.758410783616
106.758410791081
106.758410800539
106.758410812326
106.758410826747
106.758410844006
106.758410864073
106.758410886643
106.758410910828
106.758410935392
106.758410957875
106.758410976239
106.758410986571
106.758410988681
106.758410970273
106.758410968396
106.758410959766
106.758410944603
106.758410925599
106.758410904527
106.75841088334
106.758410863171
106.758410844923
106.758410828916
106.758410815281
106.758410803886
106.758410794559
106.758410787006
106.758410780953
106.75841077615
106.758410772352
106.758410769369
106.758410767041
106.758410765236
106.758410763825
106.758410762748
106.758410761948
106.758410761366
106.758410760987
106.758410760798
106.758410760784
106.758410760973
106.758410761395
106.758410762093
106.758410763126
106.758410764582
106.758410766575
106.758410769209
106.758410772687
106.758410777198
106.758410782975
106.758410790295
106.758410799419
106.758410810624
106.758410824128
106.758410840062
106.758410858296
106.758410878509
106.758410899769
106.758410920971
106.758410940078
106.758410955357
106.758410963957
106.758410965733
106.758410947703
106.758410946379
106.758410939365
106.758410926835
106.758410910756
106.758410892609
106.758410874041
106.758410856099
106.758410839582
106.758410824899
106.75841081221
106.758410801456
106.758410792521
106.758410785202
106.758410779265
106.758410774477
106.758410770664
106.758410767638
106.758410765236
106.758410763345
106.75841076189
106.758410760754
106.758410759896
106.758410759299
106.758410758892
106.758410758703
106.758410758703
106.758410758935
106.758410759401
106.758410760158
106.758410761249
106.758410762777
106.758410764829
106.758410767536
106.758410771028
106.75841077551
106.758410781185
106.758410788272
106.758410797003
106.758410807568
106.758410820141
106.758410834751
106.758410851224
106.758410869195
106.758410887836
106.75841090607
106.758410922237
106.758410934839
106.758410941839
106.758410943105
106.758410926021
106.758410925293
106.758410919705
106.758410909446
106.758410895942
106.7584108804
106.758410864204
106.758410848313
106.758410833456
106.758410820068
106.758410808325
106.758410798255
106.758410789771
106.758410782742
106.758410776965
106.75841077225
106.758410768467
106.758410765411
106.758410762981
106.758410761046
106.758410759532
106.758410758368
106.75841075748
106.758410756855
106.758410756433
106.758410756243
106.758410756258
106.758410756505
106.758410757015
106.7584107578
106.75841075895
106.758410760522
106.758410762603
106.758410765324
106.758410768802
106.758410773225
106.758410778726
106.758410785536
106.758410793802
106.758410803697
106.75841081531
106.758410828625
106.758410843424
106.758410859329
106.758410875584
106.758410891183
106.758410904775
106.758410915092
106.75841092068
106.758410921393
106.758410905342
106.758410905168
106.758410900846
106.75841089258
106.758410881303
106.758410868089
106.758410854047
106.758410840048
106.758410826762
106.758410814626
106.758410803828
106.758410794471
106.758410786482
106.758410779774
106.758410774215
106.758410769631
106.758410765891
106.758410762865
106.75841076042
106.75841075847
106.758410756927
106.75841075572
106.758410754817
106.758410754162
106.758410753755
106.758410753551
106.75841075358
106.758410753842
106.758410754366
106.758410755181
106.75841075636
106.758410757946
106.758410760041
106.758410762748
106.758410766168
106.758410770461
106.758410775772
106.758410782233
106.758410790004
106.758410799201
106.758410809853
106.758410821916
106.758410835144
106.758410849143
106.758410863229
106.7584108765
106.758410887851
106.758410896146
106.758410900482
106.758410900671
106.758410885566
106.758410885945
106.758410882743
106.758410876238
106.75841086694
106.758410855808
106.758410843715
106.758410831462
106.758410819661
106.758410808732
106.758410798881
106.758410790237
106.758410782772
106.758410776427
106.758410771115
106.758410766677
106.758410763039
106.758410760056
106.758410757626
106.758410755676
106.758410754119
106.758410752911
106.75841075198
106.758410751325
106.758410750888
106.758410750699
106.758410750728
106.758410751005
106.758410751543
106.758410752373
106.758410753566
106.758410755152
106.758410757233
106.758410759881
106.758410763214
106.758410767347
106.758410772411
106.758410778508
106.758410785769
106.758410794238
106.758410803959
106.7584108148
106.758410826544
106.758410838782
106.758410850904
106.758410862079
106.758410871422
106.75841087797
106.758410881201
106.758410880851
106.758410866576
106.758410867507
106.758410865325
106.758410860391
106.758410852868
106.758410843613
106.758410833296
106.758410822673
106.758410812254
106.758410802475
106.758410793555
106.758410785609
106.758410778697
106.758410772745
106.758410767696
106.758410763461
106.75841075994
106.758410757029
106.758410754643
106.758410752707
106.75841075115
106.758410749942
106.758410748997
106.758410748327
106.758410747905
106.758410747701
106.758410747745
106.758410748022
106.75841074856
106.758410749389
106.758410750583
106.758410752154
106.758410754192
106.758410756767
106.758410759983
106.758410763927
106.758410768714
106.758410774419
106.758410781142
106.758410788898
106.758410797673
106.758410807364
106.758410817711
106.758410828319
106.758410838651
106.75841084795
106.758410855531
106.758410860508
106.758410862705
106.758410861832
106.758410848255
106.758410849739
106.758410848517
106.758410845025
106.758410839102
106.75841083155
106.758410822848
106.758410813709
106.758410804599
106.758410795926
106.758410787894
106.758410780676
106.758410774302
106.758410768758
106.758410764014
106.758410759983
106.758410756607
106.758410753784
106.758410751456
106.758410749564
106.758410748022
106.758410746814
106.758410745882
106.758410745213
106.758410744776
106.758410744573
106.758410744616
106.758410744893
106.758410745417
106.758410746261
106.75841074741
106.758410748953
106.758410750932
106.75841075342
106.758410756491
106.758410760216
106.758410764698
106.75841077001
106.758410776165
106.758410783223
106.758410791095
106.758410799681
106.758410808718
106.758410817827
106.758410826529
106.758410834125
106.758410840092
106.758410843642
106.758410844908
106.758410843497
106.758410830473
106.758410832568
106.758410832233
106.758410830065
106.758410825612
106.758410819602
106.758410812399
106.758410804643
106.758410796756
106.758410789116
106.758410781957
106.758410775423
106.758410769602
106.75841076448
106.758410760056
106.758410756258
106.758410753042
106.758410750335
106.75841074808
106.758410746232
106.758410744733
106.758410743525
106.758410742608
106.758410741939
106.758410741502
106.758410741299
106.758410741328
106.758410741604
106.758410742128
106.758410742943
106.758410744063
106.758410745562
106.758410747454
106.758410749826
106.758410752736
106.758410756229
106.758410760405
106.75841076528
106.758410770897
106.758410777242
106.758410784256
106.758410791779
106.758410799594
106.758410807321
106.758410814538
106.758410820577
106.758410825089
106.7584108273
106.758410827708
106.758410825714
106.758410813141
106.758410815892
106.75841081643
106.758410815542
106.758410812443
106.758410807859
106.758410802009
106.758410795534
106.758410788781
106.758410782131
106.758410775801
106.758410769951
106.758410764669
106.758410759983
106.75841075588
106.758410752329
106.758410749288
106.758410746712
106.758410744558
106.758410742754
106.758410741284
106.75841074012
106.758410739203
106.758410738548
106.758410738112
106.758410737908
106.758410737937
106.758410738199
106.758410738708
106.75841073948
106.758410740571
106.758410741997
106.758410743816
106.758410746057
106.758410748778
106.758410752038
106.758410755865
106.758410760318
106.758410765382
106.758410771043
106.758410777227
106.758410783761
106.75841079044
106.758410796887
106.758410802737
106.75841080735
106.758410810507
106.758410811468
106.758410811002
106.758410808383
106.758410796159
106.758410799623
106.758410801063
106.758410801383
106.758410799535
106.758410796276
106.758410791677
106.75841078638
106.758410780691
106.758410774972
106.758410769442
106.758410764261
106.758410759518
106.758410755239
106.75841075147
106.758410748182
106.758410745329
106.758410742899
106.758410740833
106.758410739101
106.75841073769
106.75841073654
106.758410735652
106.758410734998
106.758410734576
106.758410734372
106.758410734386
106.758410734634
106.758410735114
106.758410735871
106.758410736904
106.758410738257
106.75841073996
106.758410742055
106.758410744587
106.7584107476
106.758410751092
106.758410755123
106.758410759649
106.75841076464
106.758410770024
106.758410775627
106.758410781229
106.758410786497
106.758410791095
106.758410794384
106.75841079629
106.758410796057
106.758410794719
106.758410791386
106.758410779439
106.758410783761
106.758410786089
106.758410787617
106.758410786948
106.758410784911
106.758410781462
106.758410777242
106.758410772542
106.758410767696
106.758410762923
106.758410758383
106.758410754162
106.758410750321
106.758410746887
106.758410743845
106.758410741197
106.758410738912
106.758410736948
106.758410735303
106.75841073395
106.758410732844
106.758410731971
106.758410731331
106.758410730909
106.758410730705
106.758410730705
106.758410730938
106.758410731403
106.758410732102
106.758410733077
106.758410734357
106.758410735943
106.758410737908
106.758410740222
106.758410742972
106.75841074613
106.758410749724
106.758410753726
106.758410758091
106.758410762704
106.758410767419
106.758410772047
106.758410776209
106.758410779657
106.758410781738
106.758410782466
106.75841078104
106.758410778828
106.758410774695
106.758410762966
106.758410768249
106.758410771537
106.75841077423
106.758410774681
106.758410773778
106.758410771377
106.758410768176
106.758410764392
106.758410760362
106.758410756316
106.758410752373
106.758410748662
106.758410745242
106.758410742143
106.758410739363
106.758410736918
106.758410734779
106.758410732946
106.758410731374
106.758410730079
106.758410729017
106.758410728173
106.758410727547
106.75841072714
106.758410726921
106.758410726921
106.758410727125
106.758410727547
106.758410728216
106.758410729133
106.758410730312
106.758410731796
106.758410733586
106.758410735711