/*--------------------------------*- C++ -*----------------------------------*\
  =========                 |
  \\      /  F ield         | OpenFOAM: The Open Source CFD Toolbox
   \\    /   O peration     | Website:  https://openfoam.org
    \\  /    A nd           | Version:  10
     \\/     M anipulation  |
\*---------------------------------------------------------------------------*/
FoamFile
{
    format      ascii;
    class       surfaceScalarField;
    location    "10";
    object      phi;
}
// * * * * * * * * * * * * * * * * * * * * * * * * * * * * * * * * * * * * * //

dimensions      [1 0 -1 0 0 0 0];

internalField   nonuniform List<scalar> 
4900
(
-4.64288386135409e-12
4.65522233900277e-12
-7.60863737468794e-12
2.98517055567284e-12
-7.97150780035861e-12
3.83578428156841e-13
-6.75309627479255e-12
-1.19833608990939e-12
-5.1349308742783e-12
-1.59849644684321e-12
-3.69655135724628e-12
-1.4188014140754e-12
-2.59589816334275e-12
-1.0810825215625e-12
-1.8060194307819e-12
-7.70362474907787e-13
-1.25530853829957e-12
-5.31333433759617e-13
-8.75604036417206e-13
-3.60547085017958e-13
-6.14475969882774e-13
-2.42250699447057e-13
-4.34195963153509e-13
-1.61722385489354e-13
-3.0859561080062e-13
-1.07380138465924e-13
-2.19826369400286e-13
-7.08901198386341e-14
-1.55915684939454e-13
-4.63635548696174e-14
-1.08900983718056e-13
-2.97845401117978e-14
-7.35164752877034e-14
-1.84497879750885e-14
-4.62593108992534e-14
-1.05958994440894e-14
-2.47649126046375e-14
-5.08196126744852e-15
-7.42732249749765e-15
-1.15076639933414e-15
6.89213260731124e-15
1.66593090231293e-15
1.90296868848397e-14
3.66848482784802e-15
2.96208282671269e-14
5.05782169802539e-15
3.91757019024497e-14
5.95700545323422e-15
4.81517371234799e-14
6.41848309784921e-15
5.69516656797383e-14
6.49491362299049e-15
6.59953144862633e-14
6.16867630565391e-15
7.5724529734392e-14
5.41640441994805e-15
8.66574703768214e-14
4.1609333044963e-15
9.94264103559624e-14
2.28705719481727e-15
1.14867224410608e-13
-4.08738499073099e-16
1.3411129736088e-13
-4.22209656782504e-15
1.58768771043552e-13
-9.63145643457403e-15
1.9120316602065e-13
-1.73899499664517e-14
2.34923109437264e-13
-2.86422388042286e-14
2.95218305899884e-13
-4.51702723328858e-14
3.80049531555964e-13
-6.96463763780309e-14
5.01382531738664e-13
-1.06079048112629e-13
6.77013149721365e-13
-1.60303801826961e-13
9.33109894766869e-13
-2.4070007257518e-13
1.30745839624472e-12
-3.58894187257749e-13
1.85280857935548e-12
-5.29857016614089e-13
2.63849837729842e-12
-7.70176504728639e-13
3.73891169901492e-12
-1.08487782845525e-12
5.18582003345109e-12
-1.43128930581103e-12
6.82485204530346e-12
-1.62315005910186e-12
8.06734896624817e-12
-1.2260275986071e-12
7.69829333108571e-12
3.86533128151493e-13
4.67589445993118e-12
3.04049046497842e-12
4.6888346675257e-12
-8.04014948817955e-12
1.27130513615982e-11
-1.41734056703053e-11
9.14454597876406e-12
-1.52795987502365e-11
1.51730312228522e-12
-1.32542933341507e-11
-3.19683954253349e-12
-1.0276408835232e-11
-4.55008898259529e-12
-7.52861456683594e-12
-4.1404789211102e-12
-5.37288789002313e-12
-3.21078012603047e-12
-3.79955111466875e-12
-2.31781087167736e-12
-2.68676623099144e-12
-1.61846206269584e-12
-1.90909737091169e-12
-1.11287703424009e-12
-1.36610274470507e-12
-7.60284910606626e-13
-9.84608414825001e-13
-5.18672684159092e-13
-7.13380026736684e-13
-3.54495455666471e-13
-5.1736812971933e-13
-2.43219105707395e-13
-3.72891831167887e-13
-1.67571926271769e-13
-2.64093466795987e-13
-1.15709390935244e-13
-1.80335749009768e-13
-7.97012884200079e-14
-1.14448385840901e-13
-5.43152703088776e-14
-6.15136407092539e-14
-3.61565355680249e-14
-1.80933634165345e-14
-2.29892790073004e-14
1.82956310322312e-14
-1.33901454523572e-14
4.95139052024663e-14
-6.43826333693586e-15
7.70232029277958e-14
-1.53332345887103e-15
1.02022272933072e-13
1.70806842880421e-15
1.25570536183291e-13
3.47603433979892e-15
1.48652301002307e-13
3.89731980743195e-15
1.72248436467532e-13
2.95652779435165e-15
1.97410979197454e-13
5.56667279192137e-16
2.25340829395975e-13
-3.52876398227633e-15
2.57487659430189e-13
-9.66410590951252e-15
2.95705924084112e-13
-1.84581175922467e-14
3.42467739055094e-13
-3.08250311207093e-14
4.01203910345632e-13
-4.82006588651363e-14
4.76826333261502e-13
-7.28189986111491e-14
5.765271849673e-13
-1.08105032021659e-13
7.10960382788914e-13
-1.59302603626574e-13
8.9600383184266e-13
-2.34310180070682e-13
1.15532396378398e-12
-3.44929502560319e-13
1.5239513654455e-12
-5.08366703198265e-13
2.05315895348186e-12
-7.4925206158554e-13
2.81633677760589e-12
-1.10133947986852e-12
3.91475949218316e-12
-1.6074911455206e-12
5.47631418669542e-12
-2.31090446663246e-12
7.62844344616691e-12
-3.21612820742645e-12
1.03902554030975e-11
-4.17206813637936e-12
1.34065068704319e-11
-4.61795037747488e-12
1.54780943312508e-11
-3.27530659921732e-12
1.43640954692459e-11
1.52405923265236e-12
8.1275017387807e-12
9.30052184990486e-12
1.2832077511041e-11
-7.67979132783928e-12
2.04127814089288e-11
-1.44921546137854e-11
1.59855388878619e-11
-1.60838934208479e-11
3.13893222923215e-12
-1.43074458403742e-11
-4.94418217072913e-12
-1.13550953488445e-11
-7.4739536491023e-12
-8.51386349423076e-12
-6.95353706685158e-12
-6.21934139270787e-12
-5.47734515591024e-12
-4.50532141648142e-12
-4.00411970842477e-12
-3.26635359811889e-12
-2.83002767224532e-12
-2.38129100563091e-12
-1.97090624763336e-12
-1.74861492111286e-12
-1.36633792629708e-12
-1.29275659361735e-12
-9.48340798671347e-13
-9.59920479161104e-13
-6.61578609857099e-13
-7.12805640255486e-13
-4.65011184807188e-13
-5.25818490802078e-13
-3.29648057752449e-13
-3.81498334000233e-13
-2.35507604282542e-13
-2.67887091278537e-13
-1.69151519105354e-13
-1.76717277877112e-13
-1.2165692906297e-13
-1.02179990332086e-13
-8.71683448092722e-14
-4.00887580548656e-14
-6.18285740851551e-14
1.2655975785531e-14
-4.31272288064126e-14
5.8442592278594e-14
-2.94341084044702e-14
9.91828838988678e-14
-1.96724545008321e-14
1.36489797433999e-13
-1.31627994760444e-14
1.71783952155017e-13
-9.52270599689878e-15
2.06415398236816e-13
-8.55796699672441e-15
2.41721277423602e-13
-1.02710133961802e-14
2.79124948132263e-13
-1.4847325496962e-14
3.20224689001045e-13
-2.26893536381279e-14
3.66926495794683e-13
-3.44697344980883e-14
4.21595781573703e-13
-5.12569648973606e-14
4.87318923478356e-13
-7.46856354491061e-14
5.68263876998783e-13
-1.07274104205037e-13
6.7022517459608e-13
-1.52880717231613e-13
8.01484970856345e-13
-2.17419153592308e-13
9.74010442613662e-13
-3.09817416292254e-13
1.20529003582276e-12
-4.43497920463731e-13
1.52092200873607e-12
-6.38375072224457e-13
1.95824900979807e-12
-9.23405474732605e-13
2.57117214588863e-12
-1.33978442595702e-12
3.4356255091759e-12
-1.94330869708523e-12
4.65418136234355e-12
-2.80348364917761e-12
6.35075502498163e-12
-3.98484650470398e-12
8.63696402961482e-12
-5.47961610257789e-12
1.14894671541185e-11
-7.00164749339974e-12
1.44810921460589e-11
-7.58616231816046e-12
1.63103793856837e-11
-5.08022666942544e-12
1.47214970634674e-11
3.13848010166722e-12
7.8032364831645e-12
1.62437813909168e-11
2.06517871537654e-11
-5.48913702117468e-12
2.59239334887064e-11
-1.12144997069836e-11
2.17420117908208e-11
-1.30057725967335e-11
4.96251154874739e-12
-1.20307811466412e-11
-5.8877408979173e-12
-9.91229526633107e-12
-9.56176955600764e-12
-7.71336692022791e-12
-9.12226581654919e-12
-5.84628449553862e-12
-7.31458421018614e-12
-4.3926780277514e-12
-5.42823564404649e-12
-3.30092580099792e-12
-3.89267258522332e-12
-2.49146221952254e-12
-2.75167777338742e-12
-1.89105038901891e-12
-1.93849075804112e-12
-1.44238081650697e-12
-1.36919189776933e-12
-1.10306932715223e-12
-9.7350643675818e-13
-8.42715827131696e-13
-6.98402338736047e-13
-6.39754086376829e-13
-5.06048166776698e-13
-4.78927643094416e-13
-3.7014937455004e-13
-3.4940730926991e-13
-2.72835843166864e-13
-2.43414834012639e-13
-2.02135019745585e-13
-1.55277271672989e-13
-1.50083530737922e-13
-8.07630241838876e-14
-1.11384808106898e-13
-1.66256830952431e-14
-8.25421908935317e-14
3.97006666432548e-14
-6.12472232070888e-14
9.03212425344638e-14
-4.59632112718983e-14
1.37049556149524e-13
-3.57204482447199e-14
1.81502857684153e-13
-2.99413303725604e-14
2.25224772384729e-13
-2.8359391043471e-14
2.69745053536131e-13
-3.09652207051323e-14
3.16682628753487e-13
-3.80345996199398e-14
3.67830147860504e-13
-5.01442492845211e-14
4.25283383582178e-13
-6.82711646762245e-14
4.91584089125924e-13
-9.39303094469006e-14
5.69953701094787e-13
-1.29435144942045e-13
6.64599341428397e-13
-1.78289983571083e-13
7.81172281936789e-13
-2.45796219807947e-13
9.27447661073169e-13
-3.3999085157001e-13
1.11425880918474e-12
-4.7286003295407e-13
1.35687013393199e-12
-6.62258267222479e-13
1.67687517161718e-12
-9.34431329079482e-13
2.10475246678394e-12
-1.32722527712802e-12
2.68304328373473e-12
-1.89390335833042e-12
3.46946511440764e-12
-2.70544657087364e-12
4.53824193809277e-12
-3.84787248413108e-12
5.971340566087e-12
-5.39345932523385e-12
7.82565653395487e-12
-7.30932596216598e-12
1.00288728726277e-11
-9.18002593841859e-12
1.21778663580024e-11
-9.70979892328061e-12
1.32018064899146e-11
-6.07781853033813e-12
1.14280687262049e-11
4.9396848802006e-12
5.6208419843398e-12
2.20775874838392e-11
2.62899804444316e-11
-2.75609960155165e-12
2.87038599609421e-11
-6.58529237869207e-12
2.56043785436957e-11
-8.35453231362024e-12
6.76586682797057e-12
-8.32715337313507e-12
-5.88198123139763e-12
-7.33703166571097e-12
-1.05196588673633e-11
-6.07422866781511e-12
-1.03534640606488e-11
-4.8744327729686e-12
-8.4832652357952e-12
-3.85895847086186e-12
-6.41304595824904e-12
-3.04066435387915e-12
-4.68074949451475e-12
-2.39503470886576e-12
-3.36753975298997e-12
-1.88866247486408e-12
-2.41554234208546e-12
-1.49090242957875e-12
-1.73807090159494e-12
-1.17657527274812e-12
-1.25937737775906e-12
-9.26051406057353e-13
-9.20877147683577e-13
-7.24362805527122e-13
-6.80071513855647e-13
-5.60181524989808e-13
-5.07025952987664e-13
-4.24959539820187e-13
-3.81086583559659e-13
-3.1219799799735e-13
-2.88231653750745e-13
-2.16916917827761e-13
-2.1897890410897e-13
-1.35233586712595e-13
-1.66934965621242e-13
-6.40494220963659e-14
-1.2781856396264e-13
-8.43587349218496e-16
-9.87456119957002e-14
5.65129908141061e-14
-7.7787320657298e-14
1.09881441295712e-13
-6.37083285739164e-14
1.60950608757781e-13
-5.57598222122414e-14
2.11330701006298e-13
-5.35983334754197e-14
2.62629136371179e-13
-5.72120876505044e-14
3.16530214716542e-13
-6.69565185749388e-14
3.74874751865815e-13
-8.356497444128e-14
4.39769890146555e-13
-1.08281030648124e-13
5.13719742475611e-13
-1.430179528967e-13
5.99785693327931e-13
-1.90646114304986e-13
7.01821566106138e-13
-2.55461462818039e-13
8.24786251609542e-13
-3.43869536495852e-13
9.75143956510439e-13
-4.65412568457762e-13
1.16143850680997e-12
-6.34154866976565e-13
1.39498486253772e-12
-8.70723304106079e-13
1.69077898732207e-12
-1.20504492899625e-12
2.06851437108679e-12
-1.67966688138239e-12
2.55352042377994e-12
-2.3534913928873e-12
3.1767731870515e-12
-3.30315335862145e-12
3.97239252802245e-12
-4.61782050518064e-12
4.96651330065244e-12
-6.36178729235442e-12
6.14995891539644e-12
-8.46684036634946e-12
7.40852820975821e-12
-1.04124280064896e-11
8.41557011477863e-12
-1.06901628137367e-11
8.48088766057149e-12
-6.11548318121142e-12
6.74085021969409e-12
6.70838463849189e-12
2.8672222477741e-12
2.59786952102344e-11
2.91748072328918e-11
-3.21254837185102e-13
2.90505119702846e-11
-2.17707469573247e-12
2.74949662858814e-11
-3.77135998859865e-12
8.39566271649277e-12
-4.55231393637747e-12
-5.06661352183691e-12
-4.61320196561936e-12
-1.04254117305075e-11
-4.25994212339351e-12
-1.06741436319448e-11
-3.73209569981407e-12
-8.9791452578712e-12
-3.17348351337116e-12
-6.94023010465238e-12
-2.65178263404997e-12
-5.17152388297878e-12
-2.19283579377512e-12
-3.79603735944992e-12
-1.80120371151499e-12
-2.77718083540198e-12
-1.47232743612123e-12
-2.03738863227204e-12
-1.19823203843073e-12
-1.50432734387063e-12
-9.70303611830823e-13
-1.12005118352269e-12
-7.80490615221015e-13
-8.41497174919644e-13
-6.21740252547252e-13
-6.37731964855597e-13
-4.88107098423383e-13
-4.86992495035322e-13
-3.74654837085819e-13
-3.74249520161915e-13
-2.77340808618902e-13
-2.89124178673692e-13
-1.92816869801357e-13
-2.24530856777178e-13
-1.18310602477049e-13
-1.75611571544502e-13
-5.14729993971733e-14
-1.39061584893989e-13
9.72493985880247e-15
-1.12630496002769e-13
6.7093456655784e-14
-9.48673071949188e-14
1.22299910673497e-13
-8.48801765083364e-14
1.76937234554969e-13
-8.22538298857933e-14
2.32599645697631e-13
-8.69781388858448e-14
2.90944043542162e-13
-9.94729995305535e-14
3.53760285889232e-13
-1.20605961036326e-13
4.23054517239728e-13
-1.51836417975185e-13
5.01151135387809e-13
-1.95397942698772e-13
5.90793835551084e-13
-2.54578704176289e-13
6.95281889092111e-13
-3.34230614741877e-13
8.18639216218473e-13
-4.41482636533075e-13
9.6575070694969e-13
-5.86736566253491e-13
1.14253349972841e-12
-7.85089054843684e-13
1.35600836579981e-12
-1.05826879406439e-12
1.61422486983513e-12
-1.43723236488043e-12
1.92582420510971e-12
-1.96511976499056e-12
2.29886807757513e-12
-2.70025626581753e-12
2.73806464036807e-12
-3.7159292563417e-12
3.23917351078083e-12
-5.09236432689245e-12
3.77705745977183e-12
-6.87296517157295e-12
4.28598899268223e-12
-8.94891405390854e-12
4.6267886359547e-12
-1.07261365437927e-11
4.56810181812677e-12
-1.06038957923946e-11
3.81032727496861e-12
-5.32919181548674e-12
2.2507454992589e-12
8.29740016809412e-12
3.907776935562e-13
2.7866621641058e-11
2.95833181424451e-11
1.41133288549841e-12
2.76653374053711e-11
1.17128010874503e-12
2.77701071514756e-11
-1.57808350584405e-13
9.76014278948978e-12
-1.46597195015478e-12
-3.72425274125357e-12
-2.29992894296026e-12
-9.5584166193205e-12
-2.65242672691958e-12
-1.02895030975494e-11
-2.66906091080272e-12
-8.93107625048287e-12
-2.49576515656033e-12
-7.08269193411663e-12
-2.23464804523259e-12
-5.40234218266182e-12
-1.94720472695809e-12
-4.0536710596646e-12
-1.66660993538922e-12
-3.02841865035602e-12
-1.40880589183331e-12
-2.26625826786531e-12
-1.17980285157444e-12
-1.70479137464032e-12
-9.80245027935254e-13
-1.29144155321669e-12
-8.08089513444965e-13
-9.85832093284608e-13
-6.60145898014662e-13
-7.58179469212536e-13
-5.32918207913504e-13
-5.87023811675618e-13
-4.23026622531097e-13
-4.5722125276694e-13
-3.27404915117373e-13
-3.58077962668746e-13
-2.43329820310537e-13
-2.82166252357807e-13
-1.68423937568709e-13
-2.24282184100578e-13
-1.00594427083574e-13
-1.80836931605584e-13
-3.79770692173594e-14
-1.49352188960346e-13
2.11178638309285e-14
-1.28204237735121e-13
7.82725949636431e-14
-1.1639406036973e-13
1.35008368046108e-13
-1.13447399569846e-13
1.9284671365062e-13
-1.19355381401624e-13
2.53354513262787e-13
-1.34584022452358e-13
3.18205237403339e-13
-1.60109710611278e-13
3.89240681564859e-13
-1.97559627721107e-13
4.68517998446324e-13
-2.49383816494717e-13
5.58388687293245e-13
-3.19164409117548e-13
6.61527184154831e-13
-4.12075780188318e-13
7.80965502734277e-13
-5.35604493965379e-13
9.20026123221739e-13
-7.0044028369059e-13
1.08214987671721e-12
-9.21797110786734e-13
1.27047879269122e-12
-1.22110488219623e-12
1.48701615144865e-12
-1.62817906675662e-12
1.73108877353092e-12
-2.18348403054246e-12
1.99666360355256e-12
-2.93998640105694e-12
2.26774828714612e-12
-3.96101950219707e-12
2.51107565039839e-12
-5.30954246895181e-12
2.6650251367421e-12
-7.00061539072903e-12
2.62793051641846e-12
-8.88536692407079e-12
2.25633624504348e-12
-1.03278720497509e-11
1.41162072356041e-12
-9.73205646634915e-12
1.11740438859312e-13
-4.00130517762123e-12
-1.18280626858217e-12
9.62073612015825e-12
-1.3915025004907e-12
2.8102448118249e-11
2.82086336889498e-11
2.38281198057782e-12
2.53087226430567e-11
3.23220537933781e-12
2.6955097762133e-11
2.2049059570989e-12
1.08218244458995e-11
6.69177137456867e-13
-2.15542170882945e-12
-6.08027869390045e-13
-8.24934801802981e-12
-1.40816455195323e-12
-9.45848198768295e-12
-1.79640163752792e-12
-8.51272935726486e-12
-1.90293314395929e-12
-6.94669256144883e-12
-1.84224029080411e-12
-5.43412091194124e-12
-1.69426435582909e-12
-4.1732237258331e-12
-1.50921601217758e-12
-3.18548718423065e-12
-1.31631085316721e-12
-2.43159073666964e-12
-1.13122249055721e-12
-1.8626839725769e-12
-9.6135690138656e-13
-1.43446215601145e-12
-8.09293587011946e-13
-1.11137824453818e-12
-6.74966369469485e-13
-8.66295479038083e-13
-5.56961807405912e-13
-6.79100913807686e-13
-4.5330228126304e-13
-5.35214938157925e-13
-3.61837044431891e-13
-4.24116314231809e-13
-2.80478137107152e-13
-3.38314638219181e-13
-2.07257293640607e-13
-2.72485994860614e-13
-1.40381339669592e-13
-2.22868153671134e-13
-7.81872366381648e-14
-1.86852339544607e-13
-1.91392091071815e-14
-1.62688300117234e-13
3.82206597983948e-14
-1.49301286526703e-13
9.53042152126625e-14
-1.46171569938286e-13
1.53522235864957e-13
-1.53290318567229e-13
2.14316997587727e-13
-1.71156690655777e-13
2.79209612874217e-13
-2.00826626809094e-13
3.49833574279222e-13
-2.44041055972925e-13
4.27951981116021e-13
-3.0337913019777e-13
5.15494495187218e-13
-3.82590400249342e-13
6.14511176905513e-13
-4.86968638975023e-13
7.27095958060905e-13
-6.24043262246893e-13
8.55172846831733e-13
-8.04333452997837e-13
1.00008051235427e-12
-1.04246634151552e-12
1.16181732691871e-12
-1.35852969579766e-12
1.33772537002337e-12
-1.779680556276e-12
1.52031626773849e-12
-2.34155281737452e-12
1.69378100282895e-12
-3.08879242425935e-12
1.82867912237876e-12
-4.0711065164233e-12
1.87435017250066e-12
-5.33024243322793e-12
1.75013521721398e-12
-6.85127501064481e-12
1.34090945969591e-12
-8.45086500398441e-12
5.17393860526561e-13
-9.47887889961205e-12
-7.7986865484711e-13
-8.40889752213031e-12
-2.31930333735517e-12
-2.43514285794831e-12
-3.31544695117155e-12
1.06443177409039e-11
-2.4083568094547e-12
2.72209896661351e-11
2.58159922791422e-11
2.73122675491528e-12
2.26024552589035e-11
4.16488717422663e-12
2.55533840365948e-11
3.43423934095472e-12
1.15839496476749e-11
1.91205882214097e-12
-6.03052216393712e-13
4.77275441758458e-13
-6.78561226540861e-12
-5.37690769591686e-13
-8.41556481233588e-12
-1.13543287255766e-12
-7.88782915620186e-12
-1.41873294502472e-12
-6.63688103897964e-12
-1.49669733129034e-12
-5.33018944093392e-12
-1.45295342091186e-12
-4.19147477348183e-12
-1.34439135569486e-12
-3.26897778163398e-12
-1.20682552360805e-12
-2.54446804641201e-12
-1.06148890134535e-12
-1.98368380612516e-12
-9.20100481399535e-13
-1.5518424025079e-12
-7.88450943746557e-13
-1.21932552910976e-12
-6.68802705259782e-13
-9.62528216686373e-13
-5.61401763484246e-13
-7.63351908305325e-13
-4.65448157561596e-13
-6.08265189389604e-13
-3.79613314412738e-13
-4.87272335377916e-13
-3.02390451493807e-13
-3.930632352846e-13
-2.32227076819383e-13
-3.20357798467569e-13
-1.67624478378536e-13
-2.65341652400278e-13
-1.07144653354552e-13
-2.25344981564551e-13
-4.94225873755933e-14
-1.98545848384266e-13
6.8521574768853e-15
-1.83816150225433e-13
6.29688279339533e-14
-1.80616342904427e-13
1.20205228114366e-13
-1.8892614028248e-13
1.79860765477842e-13
-2.09268863195884e-13
2.43283575524747e-13
-2.42749636015006e-13
3.11882759292581e-13
-2.91170663012477e-13
3.87125878748947e-13
-3.57170929385492e-13
4.70520563226748e-13
-4.44539499815449e-13
5.6353997637055e-13
-5.58536286884361e-13
6.6744589502444e-13
-7.0647823797062e-13
7.82981738930755e-13
-8.9836426835735e-13
9.09816386951733e-13
-1.147745602353e-12
1.04559802437061e-12
-1.47268823393756e-12
1.18443466698344e-12
-1.89680636987246e-12
1.31447356760286e-12
-2.44977187748718e-12
1.41426467537712e-12
-3.16663340802412e-12
1.44763793258643e-12
-4.08238313772323e-12
1.35702877767314e-12
-5.21738395057453e-12
1.05774907988853e-12
-6.52960043258755e-12
4.39462979573681e-13
-7.81004880242498e-12
-6.00594121362407e-13
-8.41611750339101e-12
-2.06032524241893e-12
-6.92608472625763e-12
-3.59357828390304e-12
-8.78032939386941e-13
-4.2970601671989e-12
1.13722551664578e-11
-2.78978706742188e-12
2.57364007192557e-11
2.30397180131216e-11
2.661860213997e-12
1.99635000720356e-11
4.29328247915443e-12
2.39505217791848e-11
3.82613467858694e-12
1.20789487772416e-11
2.47109592246746e-12
7.78573036785542e-13
1.07906894840515e-12
-5.36819777465065e-12
2.1032560165048e-14
-7.33312455482163e-12
-6.61078614902661e-13
-7.18209410476573e-12
-1.03804667450045e-12
-6.23691788445149e-12
-1.20251987789547e-12
-5.1432433918325e-12
-1.23165263518612e-12
-4.14031710863636e-12
-1.18143551611346e-12
-3.29756437329836e-12
-1.08916392459078e-12
-2.61546598334378e-12
-9.78355677354642e-13
-2.07354603116937e-12
-8.63013689410702e-13
-1.64654453899638e-12
-7.50924020633139e-13
-1.31106105609071e-12
-6.45964238780794e-13
-1.04740187383611e-12
-5.49631495239552e-13
-8.39848723908932e-13
-4.62069876690637e-13
-6.7622207481039e-13
-3.8265917122483e-13
-5.47290360811078e-13
-3.1040661745113e-13
-4.46115951132072e-13
-2.44153751333506e-13
-3.67583236690134e-13
-1.82685395300564e-13
-3.0793609938634e-13
-1.24790179293104e-13
-2.64500095224613e-13
-6.92783226998527e-14
-2.35433831607797e-13
-1.49890582417067e-14
-2.19579562943604e-13
3.92223509619618e-14
-2.1638394610751e-13
9.44943000516986e-14
-2.25821291988365e-13
1.51980418668822e-13
-2.48431633664427e-13
2.12849181777293e-13
-2.85335273678943e-13
2.78282549423114e-13
-3.3834917935635e-13
3.49462723069264e-13
-4.10113193973164e-13
4.27506167928008e-13
-5.04351075051993e-13
5.13365320060692e-13
-6.26157723209541e-13
6.07594627265408e-13
-7.82452160563967e-13
7.09987466151238e-13
-9.82471592804974e-13
8.1895437958259e-13
-1.2383818585671e-12
9.30519801396895e-13
-1.56586151470061e-12
1.03678002054555e-12
-1.98459441351954e-12
1.12355848509454e-12
-2.5179780186236e-12
1.1670771448315e-12
-3.19146022886126e-12
1.12960575732444e-12
-4.0260841220718e-12
9.54400356976991e-13
-5.02320986967452e-12
5.63132351332344e-13
-6.11923251196485e-12
-1.38223013647354e-13
-7.08947576491967e-12
-1.22077139024199e-12
-7.31420194362638e-12
-2.63855934956069e-12
-5.48859019380273e-12
-4.00724434655571e-12
5.11076974731805e-13
-4.4501627869469e-12
1.18361691493694e-11
-2.73862880256314e-12
2.40441568331018e-11
2.03124144419957e-11
2.3651251871658e-12
1.76180553935181e-11
3.94904464598349e-12
2.23903467518334e-11
3.697406935357e-12
1.2353315014266e-11
2.58100633859796e-12
1.9165614000407e-12
1.34540004048423e-12
-4.11207900272753e-12
3.50873189171985e-13
-6.31898796312409e-12
-3.32224805552628e-13
-6.48010697987174e-12
-7.43955989677931e-13
-5.8068752362709e-12
-9.55758957994066e-13
-4.91360488596971e-12
-1.03282016029921e-12
-4.04582648671587e-12
-1.02559513820841e-12
-3.28771757009765e-12
-9.69477704449926e-13
-2.65483600623483e-12
-8.87960868475902e-13
-2.1386149654543e-12
-7.9582838546979e-13
-1.72251007123338e-12
-7.01902485327114e-13
-1.38908410291905e-12
-6.11084933783393e-13
-1.12256583309346e-12
-5.25766662075215e-13
-9.09746073161458e-13
-4.46824530014456e-13
-7.39959367577853e-13
-3.74220810579664e-13
-6.04887966032792e-13
-3.07413747256864e-13
-4.98097452141322e-13
-2.45593284569574e-13
-4.14739654334791e-13
-1.87815975083562e-13
-3.51193495003323e-13
-1.33085842549411e-13
-3.04835370162026e-13
-8.03928401398379e-14
-2.73840184890541e-13
-2.87249733041319e-14
-2.57052172441204e-13
2.2918343102135e-14
-2.53908658312369e-13
7.55384553904903e-14
-2.64384944736166e-13
1.30132467239042e-13
-2.89018006460159e-13
1.87692319439294e-13
-3.2892487917252e-13
2.49183758943925e-13
-3.85896321400129e-13
3.15520537805984e-13
-4.62521074905863e-13
3.87468375282088e-13
-5.62375282389345e-13
4.65525579829843e-13
-6.90286590427624e-13
5.49664065767184e-13
-8.52647225267827e-13
6.38941189215495e-13
-1.05777821674062e-12
7.30869784603234e-13
-1.31630116171026e-12
8.20454488638275e-13
-1.64138336742013e-12
8.98732833125236e-13
-2.04874031475701e-12
9.50742216746649e-13
-2.55576814527326e-12
9.52707948317051e-13
-3.17910247325227e-12
8.68781748524054e-13
-3.92771870998641e-12
6.47778703686486e-13
-4.78764948235632e-12
2.23407129936798e-13
-5.68019787313593e-12
-4.77001017822299e-13
-6.37431576653477e-12
-1.4937571931197e-12
-6.28257984979844e-12
-2.75286923186752e-12
-4.21432084584527e-12
-3.88166202357233e-12
1.65567909339929e-12
-4.11044033104536e-12
1.20812348586371e-11
-2.44704986585648e-12
2.23955970208472e-11
1.78736696454197e-11
1.98123387920603e-12
1.56528622173154e-11
3.39213660289727e-12
2.09980684050716e-11
3.30409429101755e-12
1.24589169100231e-11
2.43783937512869e-12
2.79937855472129e-12
1.40467830838301e-12
-3.06328789599452e-12
5.27339285763323e-13
-5.42681671176131e-12
-1.08643880242702e-13
-5.82993382340195e-12
-5.1756474507739e-13
-5.38427975655445e-12
-7.49556678045992e-13
-4.66836108187377e-12
-8.55979448949713e-13
-3.9265143740973e-12
-8.79529919301994e-13
-3.25159754927703e-12
-8.51797597736287e-13
-2.67029178569568e-12
-7.94789693703622e-13
-2.18361914710232e-12
-7.23038023559185e-13
-1.7825162512462e-12
-6.45699066214967e-13
-1.45492177910661e-12
-5.68224688691253e-13
-1.18877071322568e-12
-4.93607717508577e-13
-9.73310763973851e-13
-4.2326232080825e-13
-7.99455072164298e-13
-3.57622299716338e-13
-6.5986442678056e-13
-2.96525636919507e-13
-5.48700119286411e-13
-2.39468373629358e-13
-4.61454695847657e-13
-1.85757281806539e-13
-3.94697030001894e-13
-1.34598320489603e-13
-3.45903989803517e-13
-8.51510697446304e-14
-3.13298489605963e-13
-3.65550034976537e-14
-2.95744531306393e-13
1.20492808047463e-14
-2.92679799290003e-13
6.15244486910419e-14
-3.04084541492831e-13
1.1271617812521e-13
-3.30479218312389e-13
1.66448883123725e-13
-3.72960849864662e-13
2.23486291519436e-13
-4.33260279748955e-13
2.84489708938702e-13
-5.13864779913006e-13
3.49920386871497e-13
-6.18151037463274e-13
4.1989057146593e-13
-7.50597821817684e-13
4.93911752253312e-13
-9.16995644422888e-13
5.70495374262305e-13
-1.12466647346363e-12
6.46558291427537e-13
-1.38263457613596e-12
7.16549591000376e-13
-1.70159949118422e-12
7.71170404245577e-13
-2.09352747976953e-12
7.95711050095822e-13
-2.57040203267415e-12
7.67890211432204e-13
-3.14128897985401e-12
6.55693101835079e-13
-3.80543428902447e-12
4.15779602926544e-13
-4.53755537860344e-12
-4.12735960471826e-15
-5.25003177572077e-12
-6.55092770021216e-13
-5.71303104564391e-12
-1.55136534558642e-12
-5.37590551315152e-12
-2.6039489853204e-12
-3.15109054001726e-12
-3.47899710456124e-12
2.54194716642218e-12
-3.54430993543792e-12
1.21582313951159e-11
-2.05917992583949e-12
2.09209191378195e-11
1.58201217459695e-11
1.59661830326127e-12
1.40680158545066e-11
2.7914663933662e-12
1.98160638274501e-11
2.81868033314404e-12
1.24434045150635e-11
2.17888343870513e-12
3.45010625101655e-12
1.35061576389217e-12
-2.22481760324768e-12
6.08159986578998e-13
-4.67480862382378e-12
4.21583380640237e-14
-5.25491428904672e-12
-3.42375934468866e-13
-4.99115937678175e-12
-5.76890980889133e-13
-4.42561732200963e-12
-6.99413733756566e-13
-3.79607173043164e-12
-7.44327358542373e-13
-3.19904181518248e-12
-7.38586549071724e-13
-2.66864872807901e-12
-7.01901023454535e-13
-2.21316509424167e-12
-6.47890697972806e-13
-1.82962130940047e-12
-5.85549159545609e-13
-1.51058164438158e-12
-5.20525193765193e-13
-1.24732677379774e-12
-4.56169948657105e-13
-1.03139925749778e-12
-3.94271537025242e-13
-8.55274956091783e-13
-3.35625253928205e-13
-7.12605245986494e-13
-2.80382675423833e-13
-5.98194886994519e-13
-2.28306337283652e-13
-5.07924445351128e-13
-1.78924174529937e-13
-4.38597616513868e-13
-1.31630521142132e-13
-3.87824753025333e-13
-8.5745581414387e-14
-3.5390425774023e-13
-4.05564778633062e-14
-3.35732811953895e-13
4.66409684055083e-15
-3.32764702042338e-13
5.06390309730721e-14
-3.44976043184578e-13
9.8071716341404e-14
-3.72869333690368e-13
1.47620486811243e-13
-4.17497366503744e-13
1.99866847458021e-13
-4.80515127067493e-13
2.55246731886285e-13
-5.64264971602944e-13
3.13961327030839e-13
-6.71889830362687e-13
3.75805301501638e-13
-8.07461816172622e-13
4.39932068080931e-13
-9.76130904121342e-13
5.04473979344275e-13
-1.18419714937968e-12
5.66000430390251e-13
-1.43912180992918e-12
6.1875797190001e-13
-1.7492808210501e-12
6.53623701557742e-13
-2.12326984933352e-12
6.56805233013799e-13
-2.56840343468287e-12
6.08343846143669e-13
-3.08758220066249e-12
4.80914872310587e-13
-3.67269159570312e-12
2.39611145349098e-13
-4.29087595395481e-12
-1.54270118793559e-13
-4.85073080858485e-12
-7.32761364834048e-13
-5.12909604723366e-12
-1.49045093749979e-12
-4.61273164323992e-12
-2.33334078112759e-12
-2.30253254158536e-12
-2.97739890774735e-12
3.19215124014855e-12
-2.9269831168479e-12
1.21143185253687e-11
-1.66550577176634e-12
1.96650681198669e-11
1.41571382627667e-11
1.25502760669307e-12
1.28206754184987e-11
2.23810970675568e-12
1.88405148097296e-11
2.34008038951244e-12
1.2347962986418e-11
1.88781952405373e-12
3.90833938083343e-12
1.24384968247945e-12
-1.57541224335737e-12
6.32995521333401e-13
-4.05902348059392e-12
1.43927734431628e-13
-4.76134311290694e-12
-2.05436839979178e-13
-4.63764244128746e-12
-4.31615098236615e-13
-4.195581752583e-12
-5.61013180076665e-13
-3.66307668745465e-12
-6.20148601482826e-13
-3.13654882391918e-12
-6.31204393626785e-13
-2.65446336685758e-12
-6.11237902793398e-13
-2.23022075763972e-12
-5.72573772923104e-13
-1.86558778365841e-12
-5.23705232035337e-13
-1.55695784634796e-12
-4.7022346085466e-13
-1.29851420635433e-12
-4.15625782799838e-13
-1.08388934692583e-12
-3.61950871060661e-13
-9.0701761940167e-13
-3.10252953321099e-13
-7.62532006782555e-13
-2.60934323448017e-13
-6.45889445586728e-13
-2.13980810990815e-13
-5.53385060315848e-13
-1.69117106839751e-13
-4.82084847271375e-13
-1.25908311804624e-13
-4.29757786943702e-13
-8.38264474719308e-14
-3.94796830479117e-13
-4.22956640779111e-14
-3.76146187041076e-13
-7.19846468570537e-16
-3.73282920454612e-13
4.1492202214369e-14
-3.86177662280395e-13
8.49065310699885e-14
-4.15309695654344e-13
1.30030861661523e-13
-4.61674841869798e-13
1.77277922462295e-13
-5.26832989725137e-13
2.26885569454417e-13
-6.12953730232471e-13
2.78832130057869e-13
-7.22920082861382e-13
3.32666016085295e-13
-8.6037536253011e-13
3.87275832909517e-13
-1.02980985684026e-12
4.40555792278931e-13
-1.23652932568721e-12
4.88924999095442e-13
-1.48651977029783e-12
5.26694554812596e-13