/*--------------------------------*- C++ -*----------------------------------*\
  =========                 |
  \\      /  F ield         | OpenFOAM: The Open Source CFD Toolbox
   \\    /   O peration     | Website:  https://openfoam.org
    \\  /    A nd           | Version:  10
     \\/     M anipulation  |
\*---------------------------------------------------------------------------*/
FoamFile
{
    format      ascii;
    class       volScalarField;
    location    "10";
    object      T;
}
// * * * * * * * * * * * * * * * * * * * * * * * * * * * * * * * * * * * * * //

dimensions      [0 0 0 1 0 0 0];

internalField   nonuniform List<scalar> 
2500
(
304.08768699664
304.087112963789
304.080281020032
304.074166296248
304.069749791052
304.066800832365
304.064903462102
304.063710157306
304.062976475078
304.06253787739
304.062282044914
304.062137860186
304.062059216257
304.062017202176
304.061995351099
304.061984018458
304.061978532017
304.061975596341
304.061973857277
304.061972911058
304.061972307204
304.061971884236
304.061971578968
304.061971398762
304.061971231907
304.06197111598
304.061971092361
304.061971128294
304.061971246331
304.061971484991
304.061971926336
304.061972809305
304.061974338771
304.061977286942
304.061983101885
304.061994602404
304.062017069821
304.062059910413
304.06214049356
304.062286261613
304.062542921842
304.062981976616
304.063712762737
304.064899570321
304.066789682695
304.069732374986
304.074158238369
304.080305619364
304.087150088494
304.087618713585
303.466831015691
303.455020458975
303.434627817695
303.417164484196
303.404505153341
303.395954829128
303.390373338315
303.386808711861
303.384580709032
303.383222880258
303.38241803557
303.381955581008
303.381698243876
303.381559372183
303.381486715006
303.381449743222
303.381431574871
303.381422725375
303.381418392495
303.381416303707
303.381415248538
303.381414670002
303.381414326397
303.381414125343
303.381413975238
303.381413876791
303.38141385373
303.38141390402
303.381414081618
303.381414516583
303.381415490886
303.381417627457
303.381422107478
303.381431459337
303.381450633478
303.381489064971
303.381564061614
303.381706202104
303.381967944797
303.382434705379
303.38324235259
303.384599600367
303.386819813342
303.390367818493
303.395928418209
303.404469628567
303.417168060053
303.43473989096
303.455195622034
303.466444222485
302.800080712956
302.774798663806
302.743550467782
302.717963979896
302.699652611066
302.687358802034
302.679362917096
302.674268067319
302.671086961347
302.669147742734
302.667997421545
302.667335317016
302.666966044987
302.666766486366
302.666661997067
302.666608938042
302.666582849219
302.666570313605
302.666564379268
302.666561616562
302.666560314216
302.666559669116
302.666559325754
302.666559135114
302.666559010073
302.666558932799
302.666558913826
302.666558970333
302.666559179022
302.666559721809
302.666561001512
302.66656389039
302.666570162185
302.666583445468
302.666610864893
302.666665974542
302.666773587183
302.666977481486
302.667352238835
302.668019879726
302.669173989565
302.671112464766
302.674284261467
302.679359547702
302.687332915679
302.699628829998
302.718023346855
302.743813893399
302.775248576244
302.799861816253
302.153188993568
302.117656331422
302.081025024877
302.052287040705
302.032187311231
302.018936574855
302.010460329067
302.005140945146
302.001864394312
301.999890561641
301.998731976563
301.998071275193
301.997705834174
301.997509890463
301.997408063736
301.997356761268
301.997331716372
301.99731981344
301.997314275317
301.997311748029
301.997310594084
301.997310048079
301.997309771898
301.997309623336
301.997309531417
301.99730947479
301.997309455274
301.997309492508
301.99730965943
301.997310124637
301.997311264
301.997313900714
301.997319748647
301.99733229821
301.997358466945
301.997411543062
301.997516086621
301.997715876143
301.998086253786
301.998752247168
301.999915020005
302.00188948521
302.005159840836
302.010465369707
302.018929644011
302.03220479085
302.052435405438
302.081471897951
302.118457106088
302.1535757649
301.576964037613
301.536767959648
301.499849414357
301.472020940203
301.453033674367
301.440767514828
301.433063656168
301.428308039952
301.425420517826
301.423702195259
301.422704037106
301.422139833868
301.421830122846
301.421665168951
301.421579965033
301.421537288416
301.42151657041
301.421506797965
301.421502303467
301.42150028379
301.421499384152
301.421498973883
301.42149877514
301.421498672072
301.421498611118
301.421498573062
301.421498556429
301.421498573968
301.421498686711
301.421499034204
301.421499916985
301.421502007718
301.421506723966
301.421516949646
301.42153844116
301.42158235047
301.421669463244
301.421837175692
301.422150517414
301.422718824544
301.423720619492
301.425440416876
301.428325111516
301.433073925939
301.440777918897
301.453088427978
301.472241396816
301.500439173816
301.53787817596
301.578065306083
301.100855913872
301.061536530409
301.028285682788
301.004124841622
300.988049406527
300.977880147038
300.971612811942
300.967808282288
300.965531094813
300.964191992032
300.963421677399
300.962989719751
300.962754146383
300.962629360778
300.962565205953
300.962533210359
300.962517742591
300.962510487402
300.962507180148
300.962505713869
300.962505075593
300.962504794982
300.96250466512
300.962504600855
300.962504564637
300.962504541349
300.962504529232
300.962504533194
300.962504598758
300.962504832253
300.962505451494
300.962506953512
300.962510394664
300.96251792114
300.962533839618
300.962566552794
300.962631831435
300.962758277014
300.962996099416
300.96343072484
300.964203623607
300.96554424598
300.967820756715
300.971623622292
300.977899347424
300.988123296974
301.004376981853
301.028937001556
301.062821054212
301.102514827356
300.733316373755
300.698888833861
300.671571422422
300.652377715289
300.639920591174
300.632205110874
300.627539570531
300.624754375602
300.623110612706
300.622154971321
300.621610206443
300.621306893915
300.621142395171
300.621055638653
300.621011192806
300.620989095434
300.620978446032
300.620973472722
300.620971222503
300.620970237477
300.620969818737
300.620969642086
300.620969564709
300.620969528843
300.620969510004
300.620969497208
300.620969488543
300.620969486371
300.620969519674
300.620969661819
300.620970062229
300.620971059285
300.620973378862
300.620978492398
300.620989363641
300.621011808577
300.621056804552
300.621144394847
300.621310062659
300.621614828473
300.622161102871
300.623117814092
300.624761732793
300.62754773248
300.632224710484
300.639994460427
300.65261983658
300.672198178069
300.700180717107
300.735241901787
300.466757882137
300.439232746103
300.418493498839
300.404364140999
300.395413174708
300.389984330654
300.386763012901
300.384871603593
300.383770639426
300.383137554393
300.382779702492
300.382581724362
300.382474858313
300.382418692708
300.382389993836
300.382375756671
300.382368911065
300.382365725516
300.382364293779
300.38236367488
300.382363418517
300.382363315663
300.382363273665
300.382363256062
300.38236324809
300.382363242057
300.38236323625
300.382363232304
300.38236324632
300.382363325362
300.382363566409
300.382364184952
300.382365646936
300.382368894101
300.382375827723
300.38239019579
300.382419103836
300.382475599186
300.382582951092
300.382781565201
300.383140109394
300.383773705004
300.384874840022
300.38676753493
300.389999389292
300.395474360323
300.404567616514
300.419032256371
300.440391774012
300.468656049091
300.284308584555
300.263952093122
300.249267722189
300.239543567998
300.233525648602
300.229950218635
300.227867982749
300.226665287986
300.225974649361
300.225581703255
300.225361347543
300.225240136093
300.225174970019
300.225140814057
300.22512339389
300.22511476458
300.22511062227
300.225108700475
300.225107842111
300.225107475761
300.225107328376
300.225107272888
300.225107252239
300.225107245013
300.225107243072
300.225107240984
300.225107237382
300.225107233705
300.225107237743
300.225107277911
300.225107414007
300.225107775425
300.225108644019
300.225110587445
300.225114752936
300.225123409573
300.225140873695
300.225175108023
300.225240405433
300.225361803532
300.225582357246
300.225975383185
300.226665920951
300.227869429036
300.229959414416
300.233569479485
300.239696794738
300.249688397513
300.264896171942
300.28596715443
300.165992937021
300.151938109865
300.142173082281
300.135874079565
300.132062442718
300.129843033693
300.128574132737
300.127853024701
300.127444438641
300.127214357026
300.127086300454
300.127016227242
300.126978683227
300.126959046474
300.126949043806
300.126944093196
300.126941719543
300.1269406212
300.126940133587
300.126939928162
300.126939848095
300.126939820237
300.126939811732
300.126939809962
300.126939810413
300.126939810148
300.126939808073
300.126939805382
300.126939805541
300.126939824092
300.126939896138
300.126940096228
300.126940585623
300.12694168869
300.126944060881
300.126949001332
300.126958987317
300.126978606045
300.1270161375
300.127086202319
300.127214223481
300.12744414994
300.127852396502
300.128573668813
300.129847311656
300.132090096972
300.135979023133
300.142475069461
300.152645236471
300.167308283597
300.09305012635
300.083927213004
300.077793918965
300.073932655469
300.071645839828
300.070340181262
300.069607126859
300.069197184835
300.068967967433
300.06884019172
300.068769586908
300.068731136673
300.068710596104
300.068699869731
300.068694409831
300.068691708641
300.068690414526
300.068689817136
300.068689553525
300.068689443976
300.068689402699
300.068689390075
300.068689387869
300.068689388394
300.068689389208
300.068689389276
300.068689388199
300.068689386246
300.068689385225
300.068689393024
300.068689429031
300.068689534509
300.068689797295
300.068690393983
300.068691681012
300.068694365482
300.068699797808
300.068710485876
300.068730978159
300.068769364717
300.068839861897
300.068967407125
300.069196185436
300.069605836393
300.070341278463
300.071661258648
300.0739986705
300.077995046055
300.08441897684
300.094011333548
300.050165465359
300.044567276118
300.040911743716
300.038661758848
300.037356287475
300.036625003367
300.036221687203
300.03599971219
300.035877222114
300.035809620696
300.035772526316
300.035752415253
300.035741698751
300.035736108917
300.035733264405
300.03573185713
300.03573118324
300.035730872856
300.035730736755
300.035730681051
300.035730660969
300.035730656008
300.035730656086
300.035730656993
300.03573065776
300.035730657968
300.035730657422
300.035730656071
300.035730654974
300.035730657843
300.035730674898
300.035730728068
300.035730863102
300.035731171986
300.035731840008
300.035733234621
300.035736058074
300.0357416173
300.035752292222
300.03577234385
300.0358093353
300.035876723181
300.035998795305
300.036220287234
300.036624502582
300.037363785723
300.038700146514
300.041036910664
300.044887236076
300.050819589137
300.02605432819
300.02279169798
300.020715934248
300.019464833448
300.018752978601
300.018361514774
300.018149362095
300.018034432487
300.017971841874
300.017937640797
300.017919001649
300.01790893854
300.017903587893
300.017900799044
300.017899379738
300.017898677321
300.017898341039
300.017898186492
300.017898119183
300.017898092103
300.017898082945
300.017898081283
300.017898081834
300.017898082657
300.017898083238
300.01789808345
300.017898083176
300.01789808231
300.017898081441
300.017898082277
300.017898089994
300.017898115723
300.017898182368
300.017898335936
300.017898668833
300.017899364052
300.017900771268
300.017903542135
300.017908867264
300.017918891107
300.017937456545
300.01797149653
300.018033753568
300.018148199838
300.018360481515
300.018756013184
300.019485545396
300.020789137814
300.022987674941
300.026472165362
300.013057301053
300.011244326372
300.010117441186
300.009451371516
300.009079362115
300.008878403158
300.008771346257
300.008714254471
300.008683569603
300.008666968896
300.008657982475
300.008653150072
300.008650585455
300.008649249289
300.008648568991
300.008648232098
300.008648070818
300.00864799686
300.008647964885
300.008647952257
300.008647948332
300.008647947939
300.008647948432
300.008647949019
300.008647949405
300.008647949565
300.008647949429
300.008647948914
300.00864794835
300.008647948491
300.00864795181
300.008647963781
300.008647995476
300.008648069035
300.008648228813
300.008648562427
300.008649237144
300.008650564879
300.008653117013
300.008657928252
300.008666869831
300.008683363831
300.008713813196
300.008770515161
300.008877395798
300.009080220864
300.009461751238
300.010157863979
300.01135791259
300.013309392109
300.006324339239
300.005360536653
300.004773888987
300.004433371053
300.00424650515
300.004147280778
300.004095300381
300.004068008878
300.00405353335
300.004045780081
300.004041611043
300.004039377712
300.004038194375
300.004037577927
300.004037263838
300.004037108159
300.004037033622
300.004036999518
300.004036984889
300.004036979256
300.004036977679
300.00403697766
300.004036977989
300.004036978355
300.004036978588
300.00403697869
300.004036978623
300.004036978337
300.004036977996
300.004036977948
300.004036979323
300.004036984701
300.004036999269
300.004037033313
300.004037107383
300.004037261929
300.004037574046
300.004038187476
300.004039366046
300.00404158983
300.004045734655
300.004053423704
300.004067747893
300.004094764568
300.004146507592
300.004246484894
300.004438191558
300.00479504519
300.005423105653
300.006468719188
300.00296502902
300.002473389455
300.002179730609
300.002012124984
300.001921666065
300.001874420013
300.001850071243
300.001837483289
300.001830894615
300.001827401129
300.001825535177
300.001824539284
300.001824012344
300.001823737796
300.001823597769
300.001823528286
300.00182349501
300.001823479819
300.001823473358
300.001823470944
300.00182347034
300.001823470399
300.001823470601
300.00182347081
300.00182347094
300.001823470999
300.001823470966
300.001823470816
300.001823470626
300.001823470555
300.001823471105
300.001823473447
300.001823479936
300.001823495199
300.001823528449
300.001823597742
300.001823737406
300.00182401139
300.001824537215
300.001825529642
300.001827383765
300.001830841448
300.001837340016
300.00184975231
300.001873901954
300.00192139706
300.002014184137
300.002190258258
300.002506270368
300.003043858852
300.001347504577
300.001106228929
300.000964543827
300.000884931518
300.000842632706
300.000820887259
300.000809857616
300.000804241914
300.000801341463
300.000799819191
300.000799011563
300.000798582067
300.000798355086
300.000798236774
300.000798176356
300.000798146335
300.000798131951
300.000798125399
300.000798122637
300.000798121639
300.00079812142
300.000798121474
300.000798121587
300.000798121698
300.000798121766
300.000798121797
300.000798121782
300.000798121707
300.000798121608
300.000798121557
300.00079812177
300.000798122762
300.00079812557
300.000798132216
300.000798146703
300.000798176844
300.000798237443
300.000798356031
300.000798583237
300.000799011919
300.000799814277
300.00080131782
300.000804167961
300.00080967977
300.000820571548
300.000842367384
300.000885726498
300.00096953737
300.001122767869
300.001388683427
300.000594463011
300.000480276647
300.000414243521
300.000377673406
300.000358527917
300.000348833059
300.000343991067
300.000341562653
300.000340325012
300.000339682116
300.000339343337
300.000339163808
300.000339069025
300.000339019588
300.000338994303
300.000338981719
300.000338975686
300.000338972943
300.000338971797
300.000338971397
300.000338971321
300.000338971356
300.000338971415
300.00033897147
300.000338971503
300.000338971519
300.000338971512
300.000338971476
300.000338971427
300.000338971398
300.000338971479
300.00033897189
300.000338973074
300.00033897589
300.00033898203
300.000338994777
300.000339020327
300.000339070179
300.000339165472
300.000339345101
300.000339681741
300.000340315358
300.000341526424
300.00034389723
300.00034865428
300.000358336679
300.000377939336
300.000416505698
300.000488262249
300.000615108013
300.000254910929
300.000202686383
300.000172900802
300.000156624766
300.000148220857
300.000144026092
300.000141962117
300.000140942184
300.00014042925
300.000140165566
300.000140027562
300.000139954681
300.000139916235
300.000139896163
300.000139885878
300.00013988075
300.000139878289
300.000139877171
300.000139876708
300.000139876551
300.000139876526
300.000139876545
300.000139876573
300.000139876598
300.000139876614
300.000139876621
300.000139876618
300.000139876602
300.000139876579
300.000139876565
300.000139876595
300.000139876762
300.00013987725
300.000139878415
300.000139880952
300.000139886204
300.000139896694
300.000139917089
300.000139955963
300.000140029131
300.000140166352
300.00014042565
300.000140925212
300.000141914922
300.000143930783
300.000148102313
300.000156692483
300.000173880965
300.000206397112
300.000264871957
300.000106381763
300.000083253963
300.000070227471
300.000063196905
300.000059613406
300.000057848964
300.000056993186
300.000056576383
300.000056369529
300.0000562643
300.000056209604
300.000056180816
300.000056165638
300.000056157705
300.00005615363
300.000056151594
300.000056150614
300.000056150169
300.000056149985
300.000056149925
300.000056149916
300.000056149924
300.000056149937
300.000056149948
300.000056149954
300.000056149957
300.000056149956
300.000056149949
300.00005614994
300.000056149933
300.000056149945
300.000056150013
300.00005615021
300.000056150681
300.000056151706
300.000056153818
300.00005615802
300.000056166157
300.000056181611
300.000056210637
300.000056265082
300.000056368321
300.000056568731
300.000056970431
300.000057800703
300.000059546724
300.000063201609
300.000070633984
300.00008491722
300.000111018352
300.000043259197
300.00003332442
300.000027791848
300.000024839796
300.000023353153
300.000022630538
300.000022284857
300.000022118857
300.000022037548
300.000021996618
300.000021975489
300.000021964404
300.000021958561
300.000021955501
300.000021953925
300.000021953134
300.000021952752
300.000021952578
300.000021952506
300.000021952481
300.000021952477
300.00002195248
300.000021952485
300.000021952489
300.000021952492
300.000021952493
300.000021952492
300.000021952489
300.000021952486
300.000021952484
300.000021952489
300.000021952517
300.000021952596
300.000021952784
300.000021953189
300.000021954021
300.000021955667
300.000021958839
300.000021964837
300.000021976072
300.000021997136
300.000022037194
300.000022115517
300.00002227429
300.000022607177
300.000023318246
300.000024830392
300.000027953247
300.000034045034
300.000045345815
300.000017159827
300.00001301367
300.000010728371
300.000009521788
300.000008920928
300.00000863239
300.000008496164
300.000008431636
300.000008400435
300.000008384893
300.000008376923
300.000008372754
300.000008370555
300.000008369401
300.000008368803
300.000008368501
300.000008368354
300.000008368285
300.000008368256
300.000008368245
300.000008368243
300.000008368243
300.000008368244
300.000008368245
300.000008368245
300.000008368246
300.000008368246
300.000008368245
300.000008368244
300.000008368244
300.000008368247
300.000008368259
300.000008368291
300.000008368365
300.000008368524
300.000008368846
300.000008369479
300.00000837069
300.000008372968
300.000008377219
300.000008385178
300.000008400351
300.000008430215
300.000008491418
300.000008621526
300.000008903677
300.000009512875
300.000010789667
300.000013316013
300.000018069506
300.000006647188
300.000004963589
300.000004044297
300.000003563643
300.000003326763
300.000003214298
300.000003161858
300.000003137343
300.000003125637
300.000003119864
300.000003116923
300.000003115387
300.000003114576
300.000003114147
300.000003113923
300.000003113808
300.000003113751
300.000003113723
300.00000311371
300.000003113704
300.000003113701
300.0000031137
300.0000031137
300.0000031137
300.000003113699
300.000003113699
300.000003113699
300.000003113699
300.000003113699
300.0000031137
300.000003113702
300.000003113708
300.000003113722
300.000003113753
300.000003113815
300.000003113939
300.000003114179
300.000003114634
300.000003115483
300.000003117059
300.000003120003
300.000003125622
300.000003136748
300.000003159788
300.000003209423
300.00000331864
300.000003557915
300.000004066518
300.00000508664
300.00000703205
300.00000251713
300.000001851052
300.000001490496
300.000001303684
300.000001212504
300.00000116967
300.00000114993
300.000001140815
300.000001136514
300.000001134412
300.000001133346
300.00000113279
300.000001132494
300.000001132335
300.00000113225
300.000001132206
300.000001132182
300.000001132169
300.000001132162
300.000001132158
300.000001132155
300.000001132154
300.000001132152
300.000001132152
300.000001132151
300.000001132151
300.000001132151
300.000001132151
300.000001132152
300.000001132153
300.000001132155
300.000001132159
300.000001132166
300.000001132179
300.000001132205
300.000001132253
300.000001132345
300.000001132514
300.000001132827
300.000001133402
300.000001134471
300.00000113651
300.000001140567
300.000001149048
300.000001167551
300.000001208835
300.000001300552
300.000001498156
300.000001899708
300.000002675399
300.000000932767
300.000000675703
300.00000053769
300.000000466799
300.00000043251
300.00000041656
300.000000409286
300.000000405965
300.000000404413
300.00000040366
300.000000403278
300.000000403077
300.000000402969
300.000000402908
300.000000402875
300.000000402855
300.000000402844
300.000000402836
300.000000402832
300.000000402828
300.000000402826
300.000000402824
300.000000402822
300.000000402821
300.000000402821
300.00000040282
300.00000040282
300.000000402821
300.000000402822
300.000000402823
300.000000402825
300.000000402828
300.000000402832
300.000000402839
300.000000402851
300.000000402871
300.000000402908
300.000000402972
300.000000403088
300.000000403296
300.00000040368
300.000000404408
300.000000405859
300.000000408917
300.000000415663
300.000000430912
300.000000465244
300.000000540182
300.000000694421
300.000000996125
300.000000338657
300.00000024177
300.000000190183
300.000000163918
300.000000151325
300.000000145519
300.000000142894
300.000000141705
300.000000141153
300.000000140885
300.000000140747
300.000000140672
300.00000014063
300.000000140605
300.000000140589
300.000000140579
300.000000140572
300.000000140567
300.000000140563
300.00000014056
300.000000140557
300.000000140555
300.000000140554
300.000000140552
300.000000140552
300.000000140551
300.000000140551
300.000000140552
300.000000140553
300.000000140554
300.000000140556
300.000000140559
300.000000140562
300.000000140567
300.000000140574
300.000000140584
300.0000001406
300.000000140626
300.000000140671
300.000000140748
300.000000140886
300.000000141145
300.000000141657
300.000000142739
300.000000145146
300.00000015065
300.000000163197
300.000000190939
300.000000248785
300.000000363381
300.000000120674
300.00000008498
300.000000066161
300.000000056679
300.000000052175
300.000000050113
300.000000049186
300.000000048766
300.00000004857
300.000000048472
300.00000004842
300.000000048389
300.00000004837
300.000000048357
300.000000048348
300.000000048341
300.000000048335
300.000000048331
300.000000048327
300.000000048324
300.000000048322
300.00000004832
300.000000048318
300.000000048317
300.000000048316
300.000000048316
300.000000048316
300.000000048316
300.000000048317
300.000000048319
300.000000048321
300.000000048323
300.000000048326
300.00000004833
300.000000048335
300.000000048341
300.00000004835
300.000000048363
300.000000048383
300.000000048414
300.000000048466
300.00000004856
300.00000004874
300.000000049118
300.000000049959
300.000000051897
300.000000056362
300.000000066369
300.000000087546
300.00000013009
300.000000042346
300.000000029486
300.000000022808
300.000000019499
300.000000017946
300.000000017238
300.000000016917
300.000000016769
300.000000016697
300.000000016658
300.000000016635
300.000000016619
300.000000016608
300.0000000166
300.000000016592
300.000000016587
300.000000016582
300.000000016578
300.000000016574
300.000000016571
300.000000016569
300.000000016567
300.000000016565
300.000000016564
300.000000016563
300.000000016563
300.000000016563
300.000000016563
300.000000016564
300.000000016566
300.000000016568
300.00000001657
300.000000016573
300.000000016576
300.000000016581
300.000000016586
300.000000016592
300.000000016601
300.000000016611
300.000000016627
300.000000016649
300.000000016686
300.000000016752
300.000000016884
300.000000017172
300.000000017832
300.000000019365
300.000000022858
300.000000030403
300.00000004585
300.000000014758
300.00000001023
300.000000007952
300.000000006865
300.000000006367
300.000000006138
300.00000000603
300.000000005976
300.000000005946
300.000000005927
300.000000005914
300.000000005903
300.000000005895
300.000000005888
300.000000005881
300.000000005876
300.000000005871
300.000000005867
300.000000005864
300.000000005861
300.000000005858
300.000000005856
300.000000005855
300.000000005854
300.000000005853
300.000000005853
300.000000005853
300.000000005853
300.000000005854
300.000000005856
300.000000005857
300.00000000586
300.000000005862
300.000000005866
300.00000000587
300.000000005875
300.00000000588
300.000000005887
300.000000005895
300.000000005905
300.000000005917
300.000000005935
300.000000005963
300.000000006011
300.000000006107
300.000000006319
300.000000006811
300.000000007962
300.000000010552
300.000000016034
300.000000005227
300.000000003675
300.000000002959
300.000000002655
300.000000002526
300.000000002463
300.000000002428
300.000000002406
300.00000000239
300.000000002377
300.000000002367
300.000000002358
300.000000002351
300.000000002344
300.000000002338
300.000000002333
300.000000002328
300.000000002324
300.000000002321
300.000000002318
300.000000002316
300.000000002314
300.000000002312
300.000000002311
300.000000002311
300.00000000231
300.00000000231
300.000000002311
300.000000002312
300.000000002313
300.000000002315
300.000000002317
300.00000000232
300.000000002323
300.000000002327
300.000000002331
300.000000002337
300.000000002343
300.00000000235
300.000000002358
300.000000002367
300.000000002379
300.000000002394
300.000000002414
300.000000002446
300.000000002505
300.000000002634
300.000000002961
300.000000003787
300.000000005682
300.000000001997
300.000000001486
300.000000001313
300.00000000128
300.000000001276
300.000000001269
300.000000001258
300.000000001246
300.000000001235
300.000000001224
300.000000001215
300.000000001207
300.000000001199
300.000000001193
300.000000001187
300.000000001182
300.000000001178
300.000000001174
300.00000000117
300.000000001168
300.000000001165
300.000000001163
300.000000001162
300.000000001161
300.00000000116
300.00000000116
300.00000000116
300.000000001161
300.000000001161
300.000000001163
300.000000001164
300.000000001167
300.000000001169
300.000000001172
300.000000001176
300.000000001181
300.000000001186
300.000000001192
300.000000001198
300.000000001206
300.000000001214
300.000000001224
300.000000001235
300.000000001247
300.000000001258
300.000000001265
300.000000001272
300.000000001315
300.000000001526
300.000000002156
300.000000000924
300.00000000077
300.000000000782
300.00000000084
300.000000000877
300.000000000889
300.000000000885
300.000000000876
300.000000000865
300.000000000855
300.000000000846
300.000000000838
300.000000000831
300.000000000825
300.000000000819
300.000000000814
300.00000000081
300.000000000806
300.000000000803
300.0000000008
300.000000000798
300.000000000796
300.000000000795
300.000000000794
300.000000000793
300.000000000793
300.000000000793
300.000000000793
300.000000000794
300.000000000795
300.000000000797
300.000000000799
300.000000000802
300.000000000805
300.000000000809
300.000000000813
300.000000000818
300.000000000824
300.00000000083
300.000000000838
300.000000000846
300.000000000855
300.000000000865
300.000000000874
300.000000000879
300.00000000087
300.000000000837
300.000000000785
300.000000000786
300.000000000979
300.000000000577
300.000000000543
300.000000000617
300.000000000703
300.000000000753
300.00000000077
300.000000000768
300.000000000759
300.000000000749
300.000000000739
300.00000000073
300.000000000721
300.000000000714
300.000000000708
300.000000000702
300.000000000698
300.000000000693
300.00000000069
300.000000000687
300.000000000684
300.000000000682
300.00000000068
300.000000000679
300.000000000678
300.000000000677
300.000000000677
300.000000000677
300.000000000678
300.000000000678
300.00000000068
300.000000000681
300.000000000683
300.000000000686
300.000000000689
300.000000000692
300.000000000697
300.000000000702
300.000000000707
300.000000000714
300.000000000721
300.000000000729
300.000000000739
300.000000000749
300.000000000758
300.000000000761
300.000000000748
300.000000000702
300.00000000062
300.000000000551
300.000000000596
300.00000000047
300.000000000477
300.000000000569
300.000000000663
300.000000000716
300.000000000733
300.000000000731
300.000000000722
300.000000000711
300.000000000701
300.000000000692
300.000000000684
300.000000000677
300.000000000671
300.000000000665
300.00000000066
300.000000000656
300.000000000653
300.00000000065
300.000000000647
300.000000000645
300.000000000644
300.000000000642
300.000000000641
300.000000000641
300.000000000641
300.000000000641
300.000000000641
300.000000000642
300.000000000643
300.000000000645
300.000000000647
300.000000000649
300.000000000652
300.000000000656
300.00000000066
300.000000000664
300.00000000067
300.000000000676
300.000000000684
300.000000000692
300.000000000702
300.000000000712
300.000000000721
300.000000000725
300.000000000712
300.000000000664
300.000000000573
300.000000000482
300.000000000477
300.000000000443
300.000000000462
300.000000000559
300.000000000654
300.000000000706
300.000000000722
300.000000000719
300.000000000709
300.000000000698
300.000000000688
300.000000000679
300.000000000671
300.000000000664
300.000000000658
300.000000000652
300.000000000648
300.000000000644
300.00000000064
300.000000000638
300.000000000635
300.000000000633
300.000000000632
300.00000000063
300.000000000629
300.000000000629
300.000000000629
300.000000000629
300.000000000629
300.00000000063
300.000000000631
300.000000000633
300.000000000635
300.000000000637
300.00000000064
300.000000000643
300.000000000647
300.000000000652