/*--------------------------------*- C++ -*----------------------------------*\
  =========                 |
  \\      /  F ield         | OpenFOAM: The Open Source CFD Toolbox
   \\    /   O peration     | Website:  https://openfoam.org
    \\  /    A nd           | Version:  10
     \\/     M anipulation  |
\*---------------------------------------------------------------------------*/
FoamFile
{
    format      ascii;
    class       volVectorField;
    location    "10";
    object      U;
}
// * * * * * * * * * * * * * * * * * * * * * * * * * * * * * * * * * * * * * //

dimensions      [0 1 -1 0 0 0 0];

internalField   nonuniform List<vector> 
2500
(
(-1.03625270748013e-06 -9.53537298908389e-07 1.01756444248558e-25)
(-2.98518544484361e-06 -1.35263063474898e-06 1.94334085265395e-24)
(-3.62898264971955e-06 -1.53615304341432e-06 9.52184405149112e-26)
(-3.30832438781983e-06 -1.64176222038078e-06 -1.76833542813233e-25)
(-2.59030742851575e-06 -1.67031512505949e-06 -7.00816883304166e-25)
(-1.89492450680486e-06 -1.66544113738211e-06 -6.85597266869745e-25)
(-1.3363738975503e-06 -1.64984338532007e-06 -3.2391619273765e-25)
(-9.31297592466776e-07 -1.63459950793656e-06 -3.05189513896081e-25)
(-6.46142238134065e-07 -1.62202445383824e-06 -4.21809403282606e-25)
(-4.49657993435984e-07 -1.61253989926782e-06 1.62791314969057e-24)
(-3.14512087164943e-07 -1.60562826807319e-06 1.02674230702652e-24)
(-2.21593776751943e-07 -1.60077527585276e-06 2.76904762299669e-24)
(-1.57174317741395e-07 -1.59745944816204e-06 2.06060171750529e-24)
(-1.11986233244733e-07 -1.59526200919829e-06 8.32684852009262e-25)
(-7.97316258142249e-08 -1.59382711547154e-06 1.75446452323318e-24)
(-5.62297292876151e-08 -1.59291585926873e-06 5.30398574667639e-25)
(-3.87177717315034e-08 -1.59233048371857e-06 2.57820790658316e-24)
(-2.53628548305769e-08 -1.59196303595703e-06 1.80015418050154e-24)
(-1.49402074851756e-08 -1.59172700525976e-06 2.83500120332679e-25)
(-6.61736388157609e-09 -1.59157612664473e-06 1.67495046646191e-24)
(1.8208507683646e-10 -1.59147726740708e-06 -9.96606490230829e-26)
(5.87028833042568e-09 -1.5914154235943e-06 -2.09471520908233e-25)
(1.07627571482917e-08 -1.59137275285275e-06 1.79747130124e-24)
(1.51036684301616e-08 -1.59135319164504e-06 1.38583721629718e-25)
(1.90952937826285e-08 -1.59134999693065e-06 -1.37381383127727e-25)
(2.29248673705567e-08 -1.59135584969868e-06 2.07631423249545e-24)
(2.67665398627569e-08 -1.59137991994973e-06 1.28655933072101e-25)
(3.08053386589203e-08 -1.59141196443493e-06 6.70644674540226e-25)
(3.52476639881538e-08 -1.59146773090374e-06 2.13753262955775e-24)
(4.0336370113045e-08 -1.59154344343115e-06 -6.86968526340349e-26)
(4.63830043501757e-08 -1.59165924471843e-06 1.20145372975372e-25)
(5.38010692778495e-08 -1.5918306758484e-06 -8.38897890963426e-26)
(6.31655782808812e-08 -1.5920874806542e-06 5.58974835720638e-25)
(7.53103221396954e-08 -1.59247743970735e-06 5.51090532246933e-25)
(9.14587973271543e-08 -1.5930849737361e-06 -3.58068647212742e-27)
(1.13449868469294e-07 -1.59402608524636e-06 1.72594317236375e-24)
(1.44058417452419e-07 -1.5954799615814e-06 -1.71255702032688e-24)
(1.87461355891366e-07 -1.59769629432249e-06 -1.68438037390257e-25)
(2.49940349889354e-07 -1.60101189008797e-06 1.42143743746565e-26)
(3.40752181771294e-07 -1.60585376126686e-06 -9.49793497104914e-25)
(4.73622219943886e-07 -1.61273842356626e-06 -2.98253331471134e-24)
(6.67717730407995e-07 -1.62219092083769e-06 -3.28634253299782e-24)
(9.50601910541805e-07 -1.63479807107484e-06 -1.69565613992008e-24)
(1.35432081855582e-06 -1.65022476084727e-06 -3.51754765378564e-24)
(1.91404028091333e-06 -1.66628908178936e-06 -3.19595703763228e-24)
(2.61579065238469e-06 -1.67188641728107e-06 -1.73742106846705e-24)
(3.34537257856748e-06 -1.64352296744057e-06 -3.15095996789846e-24)
(3.67524035092459e-06 -1.53606853313629e-06 -2.83528913725026e-24)
(3.01468846082148e-06 -1.34877540327236e-06 -1.25264428671165e-24)
(1.03850291200882e-06 -9.52995759777691e-07 -1.71646786064553e-24)
(-1.59045473659472e-06 -7.65381339112381e-07 -1.26262517080784e-25)
(-5.50693130864636e-06 -1.72269489058851e-06 -1.56545260420039e-25)
(-6.89616955356233e-06 -2.8615464505145e-06 -1.93960238746295e-25)
(-6.43343135703563e-06 -3.55033305559345e-06 -5.46604674219331e-25)
(-5.13627566755864e-06 -3.73988874993208e-06 -2.16918091269568e-24)
(-3.82231781755409e-06 -3.6762989405157e-06 -1.99523462830468e-24)
(-2.73914061936588e-06 -3.53953919028493e-06 -8.9197255260319e-25)
(-1.93863235291423e-06 -3.40918666707286e-06 -8.79350523106996e-25)
(-1.36731770090853e-06 -3.30683149574998e-06 -1.67728895847046e-24)
(-9.6848851425747e-07 -3.23244270250252e-06 -1.45473307472663e-25)
(-6.9046440517915e-07 -3.18029530646739e-06 1.94122487879877e-24)
(-4.96219341177004e-07 -3.14450584861507e-06 1.97784086183625e-24)
(-3.59013023383452e-07 -3.12026814308591e-06 9.82134009136162e-25)
(-2.60668820835972e-07 -3.10399465645519e-06 1.39852039975846e-24)
(-1.88824428300756e-07 -3.09309407633274e-06 4.64290819125579e-25)
(-1.352111192809e-07 -3.08576569770531e-06 4.95792502912027e-25)
(-9.43129068520007e-08 -3.08079522935739e-06 1.13165139830601e-24)
(-6.24276277735435e-08 -3.07737466598085e-06 1.74997815105671e-25)
(-3.70374825558461e-08 -3.07498579303789e-06 -1.32198602125233e-25)
(-1.63994274404478e-08 -3.07328779887032e-06 -5.21159872928551e-25)
(7.2912343025262e-10 -3.0720762218677e-06 -7.47611123202181e-25)
(1.52563161500781e-08 -3.07120775703725e-06 -1.18706096796051e-24)
(2.78857358584906e-08 -3.07060500412085e-06 5.51143338221195e-25)
(3.91834509663665e-08 -3.07021921538906e-06 -1.61725880952808e-25)
(4.96333524827343e-08 -3.07000823790781e-06 -1.05462819052696e-24)
(5.96666359615547e-08 -3.06996638658383e-06 4.61797260980723e-25)
(6.97078903454444e-08 -3.07009937035208e-06 -2.89649281926511e-25)
(8.01909390776431e-08 -3.07040939440307e-06 1.40415567498347e-24)
(9.15957444015979e-08 -3.07093450900917e-06 1.06858661105125e-24)
(1.04485890006356e-07 -3.07172070380887e-06 -7.31017562865116e-25)
(1.19555917143869e-07 -3.07286528063533e-06 3.86940794876465e-25)
(1.37720274390633e-07 -3.07449140888712e-06 -3.05765312977186e-25)
(1.6021304943703e-07 -3.07681652203155e-06 1.60506492652878e-24)
(1.88772793718292e-07 -3.08017224541616e-06 1.52400102972998e-24)
(2.25916468911169e-07 -3.08509209346521e-06 -5.08395705413029e-25)
(2.75362106085815e-07 -3.09237300313612e-06 3.55686528842185e-25)
(3.42640010502279e-07 -3.10322539627432e-06 -7.98886069074644e-25)
(4.36016013980302e-07 -3.11944864770106e-06 -1.27224830429938e-26)
(5.67843675679976e-07 -3.14360061298355e-06 2.79301016188454e-25)
(7.56298230302387e-07 -3.17927865263135e-06 -1.94377685683046e-24)
(1.0281441438787e-06 -3.23131157146108e-06 -3.13303596503042e-24)
(1.42056766769124e-06 -3.3057064550314e-06 -3.38100718960043e-24)
(1.98578158846862e-06 -3.40854559890707e-06 -3.46088884189952e-24)
(2.78210330575789e-06 -3.54054414564891e-06 -3.64031273422947e-24)
(3.8662174907999e-06 -3.68096641764867e-06 -3.73874497769981e-24)
(5.19139179095963e-06 -3.74966437818946e-06 -3.50819715206473e-24)
(6.51049498523674e-06 -3.56136141370214e-06 -3.60786828025751e-24)
(6.99220770550781e-06 -2.85957887591989e-06 -3.25343850748408e-24)
(5.57518117617548e-06 -1.69854986681767e-06 -2.4606784938393e-24)
(1.59996106964782e-06 -7.49632528519201e-07 -1.40594834021066e-24)
(-1.27571195066496e-06 1.44400433560803e-06 -4.25243770151626e-25)
(-5.57280994967635e-06 2.3047320200504e-07 -1.93723821979601e-24)
(-7.1645012663944e-06 -2.02956677987395e-06 -5.20616343652323e-25)
(-6.85983518582364e-06 -3.41709896823601e-06 -6.83609610223842e-25)
(-5.60338845195803e-06 -3.81370638725002e-06 -2.79276895639658e-24)
(-4.26657737004621e-06 -3.68372392556844e-06 -3.13183205718097e-24)
(-3.1284660420249e-06 -3.39766917638059e-06 -1.17215442935434e-24)
(-2.26702751137859e-06 -3.1221990322918e-06 -1.20294692348875e-24)
(-1.63874840189644e-06 -2.90577967053948e-06 -3.05915518065763e-24)
(-1.1907220177616e-06 -2.74889691158994e-06 -2.08902507580928e-24)
(-8.7128632575051e-07 -2.63936609550404e-06 2.43978612378712e-24)
(-6.42581057423122e-07 -2.56431046259049e-06 8.22098943759248e-25)
(-4.76743177946496e-07 -2.51334799026958e-06 -9.50392109873077e-25)
(-3.54604292075588e-07 -2.47884342114323e-06 1.66251576201713e-24)
(-2.62937331211605e-07 -2.45541851768541e-06 -1.36865688325432e-24)
(-1.92762530065524e-07 -2.43936086865976e-06 1.39485605520563e-26)
(-1.37958225555535e-07 -2.42821970881808e-06 -1.97457429574354e-25)
(-9.43169661204161e-08 -2.42035355631876e-06 -1.91240182305917e-24)
(-5.89163981080408e-08 -2.41472178649422e-06 -8.06456538165422e-25)
(-2.96686383213234e-08 -2.41062290522429e-06 -2.54723729063297e-24)
(-5.04530494975208e-09 -2.40763148409835e-06 -1.33816497599947e-24)
(1.61028949961427e-08 -2.40545802776126e-06 -2.42600933560121e-24)
(3.46850685694238e-08 -2.40391960258279e-06 -6.94578327136249e-25)
(5.14595044414071e-08 -2.40289406418549e-06 -5.64225726794307e-25)
(6.70668198500343e-08 -2.40232954215304e-06 -2.2589584485048e-24)
(8.20920254840385e-08 -2.40218700155203e-06 -9.46606765020078e-25)
(9.71165158071452e-08 -2.4024688105132e-06 -1.21676309439479e-24)
(1.12731455834084e-07 -2.40320166096978e-06 2.01862118137268e-24)
(1.29579016342192e-07 -2.404462532308e-06 3.23995613014767e-26)
(1.48398773545661e-07 -2.40635908852164e-06 -1.77190574743661e-24)
(1.7009586779296e-07 -2.40907197193502e-06 6.8982477578986e-25)
(1.95823349015597e-07 -2.41289280325185e-06 -6.53561726750573e-25)
(2.27093741616936e-07 -2.4182538197558e-06 2.63272727374604e-24)
(2.65985204782983e-07 -2.42585194440863e-06 2.47797661082153e-24)
(3.15424360655656e-07 -2.43674604672761e-06 -1.42189432788941e-24)
(3.79626341102621e-07 -2.45256529069723e-06 -6.21904906273439e-25)
(4.64716856802486e-07 -2.47577228814429e-06 1.13900948096748e-25)
(5.79690100605263e-07 -2.51005129047598e-06 2.89747999437008e-25)
(7.37781927959819e-07 -2.56077479321647e-06 9.21080442982609e-25)
(9.58186056291043e-07 -2.63559419250603e-06 -3.28820142602743e-24)
(1.26881699940552e-06 -2.74495292095548e-06 -2.52413613161192e-24)
(1.70778573577031e-06 -2.90198743361931e-06 -2.64962877192294e-24)
(2.32738793325847e-06 -3.11957719139498e-06 -4.70377568184178e-24)
(3.18228989721598e-06 -3.39865026189717e-06 -2.91019195136356e-24)
(4.31951635930694e-06 -3.69248000581595e-06 -3.19944915270466e-24)
(5.66685531279839e-06 -3.83325505154624e-06 -4.76795802667281e-24)
(6.94685634029868e-06 -3.43994079100133e-06 -3.03287652437052e-24)
(7.2753418082779e-06 -2.02718252166872e-06 -2.71318726102593e-24)
(5.66222422851885e-06 2.7860264957387e-07 -3.9202103594595e-24)
(1.29480120640054e-06 1.48717331929355e-06 -1.03924343090079e-24)
(-7.42861428340609e-07 3.63894998261182e-06 -4.97039465580961e-25)
(-4.22456330817875e-06 2.51561226742883e-06 -2.5076933619018e-24)
(-5.66310575269495e-06 -7.23503109567455e-07 -5.19956607174937e-25)
(-5.65296380417478e-06 -2.76539976622181e-06 -4.16053734579111e-25)
(-4.79232492707999e-06 -3.40012733880952e-06 -1.45974482302202e-24)
(-3.78859864919712e-06 -3.2528518958165e-06 -2.08789468096987e-24)
(-2.88299903839449e-06 -2.86050948493081e-06 -9.4506400537982e-25)
(-2.16791932991149e-06 -2.46986475900972e-06 -1.01754706271181e-24)
(-1.62542101665373e-06 -2.15840374058704e-06 -2.36173257847002e-24)
(-1.22387656669726e-06 -1.93032541359423e-06 -2.41772436418941e-24)
(-9.26693704281088e-07 -1.76978175832189e-06 1.41578397164982e-24)
(-7.05873807102437e-07 -1.65872954833818e-06 -7.65808087129847e-25)
(-5.39835009453369e-07 -1.58248959045834e-06 -1.70444432543633e-24)
(-4.13266090094039e-07 -1.53014250258936e-06 6.85278098756274e-25)
(-3.15230122058602e-07 -1.49400398778523e-06 -1.90447404864768e-24)
(-2.3804484971468e-07 -1.46878576700951e-06 -2.58388902856262e-25)
(-1.76282002898241e-07 -1.45093228595101e-06 -1.34929222329106e-24)
(-1.26063524175167e-07 -1.43810028537372e-06 -2.34788568825662e-24)
(-8.45891645580515e-08 -1.42873481592927e-06 -9.1631948937343e-25)
(-4.97847360378176e-08 -1.42182518215659e-06 -2.84846274393486e-24)
(-2.00809872586652e-08 -1.41670079073469e-06 -1.25620635997425e-24)
(5.74832600256996e-09 -1.41294485431761e-06 -1.78250512049367e-24)
(2.86953350432048e-08 -1.41025155867816e-06 -1.6196553153497e-24)
(4.95876130288452e-08 -1.40845071384201e-06 -5.83184870151894e-25)
(6.91586830697837e-08 -1.40744238416108e-06 -1.60502082430761e-24)
(8.80833850996519e-08 -1.40716850925878e-06 -1.82469891632055e-24)
(1.07020394250795e-07 -1.40762457508516e-06 -7.8513757251005e-25)
(1.26637853474655e-07 -1.40887114502995e-06 1.15335038549382e-24)
(1.47663201090396e-07 -1.41101379376753e-06 -1.06752888574024e-24)
(1.70929153167167e-07 -1.41422995650737e-06 -1.31543604699814e-24)
(1.97406051033565e-07 -1.4187948616303e-06 3.05770947694063e-25)
(2.28318053173619e-07 -1.42515400424588e-06 -4.52007861571478e-25)
(2.65222901213364e-07 -1.4339679441521e-06 1.82069992550076e-24)
(3.10178618297806e-07 -1.44625906439385e-06 1.7017252873441e-24)
(3.65985725235548e-07 -1.46358565473149e-06 -9.71382387251672e-25)
(4.36520805028113e-07 -1.4883006053617e-06 -1.4184938451032e-24)
(5.27217431766196e-07 -1.52395763167497e-06 1.08652586168549e-24)
(6.45767191053466e-07 -1.57582418585771e-06 3.84172996298688e-25)
(8.03120265682915e-07 -1.65159696620637e-06 2.61870799642827e-25)
(1.014645268959e-06 -1.76221707323838e-06 -2.8098047921632e-24)
(1.30200238625779e-06 -1.9225020713902e-06 -1.04939237424526e-24)
(1.69345210099223e-06 -2.15086849179026e-06 -9.5288879047915e-25)
(2.22614876252848e-06 -2.46421003716887e-06 -3.74377843015815e-24)
(2.93320551235536e-06 -2.86041702966377e-06 -1.35240702435074e-24)
(3.83555533715845e-06 -3.26463068662594e-06 -1.68858405244604e-24)
(4.84606854288018e-06 -3.42868490279659e-06 -4.24607732871322e-24)
(5.72651454408314e-06 -2.80078079022454e-06 -1.53236342765756e-24)
(5.7611125005644e-06 -7.24743904465027e-07 -1.22649958967757e-24)
(4.3153357392622e-06 2.58309352436969e-06 -3.48249328988249e-24)
(7.69120708274899e-07 3.71033790782414e-06 -9.55747035009405e-26)
(-2.15108319225508e-07 5.32610674126656e-06 -3.02769367654751e-25)
(-2.35883726838984e-06 4.50371409122823e-06 -1.53772092549754e-24)
(-3.47244242124032e-06 6.34495550075521e-07 -1.85469324341048e-25)
(-3.76821380559015e-06 -1.90035762669105e-06 -2.10814708286213e-26)
(-3.4262270030445e-06 -2.77104667186465e-06 -1.98476908566804e-25)
(-2.89186924176316e-06 -2.67147018336825e-06 -1.23813742078187e-24)
(-2.33653701628969e-06 -2.24490006994953e-06 -5.3044625896047e-25)
(-1.85662409496647e-06 -1.79625829308955e-06 -5.95916453960218e-25)
(-1.46359327866674e-06 -1.42929152509016e-06 -1.5682969035092e-24)
(-1.15298283393715e-06 -1.15551336877033e-06 -1.34327243594948e-24)
(-9.09046118753477e-07 -9.59666627197236e-07 1.21128458274512e-24)
(-7.17904563446797e-07 -8.21993035514893e-07 6.27490351893273e-26)
(-5.6723962121922e-07 -7.25846897286774e-07 -7.66757099525454e-25)
(-4.47573461237656e-07 -6.58619927648753e-07 6.11811713397302e-25)
(-3.51594518066284e-07 -6.11308292979922e-07 -9.37909519061185e-25)
(-2.73789647515953e-07 -5.77657248762815e-07 1.09079052601481e-26)
(-2.1000606440587e-07 -5.53388155155371e-07 -4.57699610492711e-25)
(-1.57086294214592e-07 -5.35638742977806e-07 -1.10687012652824e-24)
(-1.12631305528135e-07 -5.22492993826661e-07 -3.82857709831749e-25)
(-7.47741216629676e-08 -5.12669526263671e-07 -1.47577581493309e-24)
(-4.20459683720012e-08 -5.05316900940552e-07 -6.82208741632127e-25)
(-1.32569064721562e-08 -4.99871021715734e-07 -1.06661538668609e-24)
(1.25832242864966e-08 -4.95954001432051e-07 -7.52340193310228e-25)
(3.63194625641808e-08 -4.93328036369061e-07 -2.32091646038145e-25)
(5.87121512260242e-08 -4.91839716551367e-07 -9.42992942374889e-25)
(8.04638039507343e-08 -4.91428286239837e-07 -9.16121553615657e-25)
(1.02259470301563e-07 -4.92095260418987e-07 -4.76259029726542e-25)
(1.24800775363454e-07 -4.93905198530458e-07 8.57207291479534e-25)
(1.48843725277187e-07 -4.96996966365158e-07 -5.15024294483983e-25)
(1.7522892857164e-07 -5.01622396873277e-07 -9.28043104382085e-25)
(2.04928832441301e-07 -5.08146555127314e-07 1.50298883545967e-25)
(2.39123143358648e-07 -5.17134959069607e-07 -4.41878039294493e-25)
(2.79270972087062e-07 -5.29447500516788e-07 1.23108998873132e-24)
(3.27221600095401e-07 -5.4635895488624e-07 1.18590318082657e-24)
(3.85370824411311e-07 -5.69809687680547e-07 -7.08959401614146e-25)
(4.56860990492548e-07 -6.02665849962519e-07 -7.80768567569793e-25)
(5.45841508995323e-07 -6.49196934310615e-07 5.35210440113569e-25)
(6.57829134518472e-07 -7.1566420916326e-07 2.41907632608349e-25)
(8.0015706246559e-07 -8.11071066173809e-07 1.74886206503907e-26)
(9.82350696124204e-07 -9.48091338618914e-07 -2.94399194991123e-24)
(1.21679318476579e-06 -1.14354563601471e-06 -1.14274154435849e-24)
(1.51758603705475e-06 -1.41769118240015e-06 -1.15258961232302e-24)
(1.90084105096804e-06 -1.78709491901405e-06 -3.5632898515707e-24)
(2.37201716087975e-06 -2.2428399417275e-06 -1.33811478179979e-24)
(2.92175449561726e-06 -2.68460968109181e-06 -1.60602346795269e-24)
(3.45783891362972e-06 -2.80628391649884e-06 -4.07805816795616e-24)
(3.81295282276003e-06 -1.94700024779745e-06 -1.49620479694149e-24)
(3.53866912069386e-06 6.25791149979276e-07 -1.27079281505128e-24)
(2.432488430636e-06 4.58202046965782e-06 -3.62488735898816e-24)
(2.42496430851361e-07 5.42076284657067e-06 -4.54256004074554e-25)
(1.89289503222651e-07 6.34438225765764e-06 -7.65959663829613e-26)
(-6.00883937763325e-07 5.92305308592927e-06 -1.34613306093518e-24)
(-1.35387588677841e-06 1.81424717014252e-06 1.6720123444936e-25)
(-1.88313481315155e-06 -1.01026821889339e-06 2.14303450650658e-25)
(-2.01480663221341e-06 -2.08168577050751e-06 -4.57916975978286e-25)
(-1.92741949663633e-06 -2.07659213374187e-06 -9.08011160855151e-25)
(-1.71826277599784e-06 -1.67906809169186e-06 -1.46926651816043e-25)
(-1.4783393074341e-06 -1.22641857316773e-06 -1.69918505711986e-25)
(-1.24339516718448e-06 -8.42876723216396e-07 -1.05868324887786e-24)
(-1.03310977328751e-06 -5.49445670773175e-07 -8.45491744023336e-25)
(-8.51381647249417e-07 -3.34983495227148e-07 1.39405857071786e-24)
(-6.97915204651588e-07 -1.81101540199619e-07 5.35023748367468e-25)
(-5.69539445942735e-07 -7.14057457295766e-08 -3.43269388330073e-25)
(-4.62651482965418e-07 6.88744918406199e-09 9.92951155975587e-25)
(-3.73652076222122e-07 6.31142215745293e-08 -5.30122802266685e-25)
(-2.99325399963129e-07 1.03902699007947e-07 3.68250380216975e-25)
(-2.36921725852742e-07 1.33842987171404e-07 2.10778399056312e-25)
(-1.84142113647798e-07 1.56097139024951e-07 -4.27697354223414e-25)
(-1.39088270853945e-07 1.72800409854957e-07 2.04817907395689e-25)
(-1.00191998063113e-07 1.85423796535919e-07 -7.2318358192612e-25)
(-6.61585230546945e-08 1.94943624808734e-07 -7.79662871401974e-26)
(-3.58976960680522e-08 2.02046862567856e-07 -6.14337263645786e-25)
(-8.4775252601407e-09 2.07172932623367e-07 -1.13288938073417e-25)
(1.69196727119775e-08 2.10622061950024e-07 1.57597755763401e-25)
(4.10368785417168e-08 2.12569503516945e-07 -6.32389500450035e-25)
(6.45642469790319e-08 2.1309101697362e-07 -2.72570690002421e-25)
(8.8189334402451e-08 2.12195107851483e-07 -4.07741174803528e-25)
(1.12604853080144e-07 2.09801478006003e-07 9.74159954656385e-25)
(1.38539959669681e-07 2.05726618712847e-07 -1.68530370372373e-25)
(1.66813196835113e-07 1.99689624805234e-07 -9.07892991443518e-25)
(1.98339542141808e-07 1.91226491928465e-07 3.40904185422346e-25)
(2.34193233907194e-07 1.79683476608954e-07 -7.08335097976186e-25)
(2.75661884499377e-07 1.64059459731863e-07 1.09613580386866e-24)
(3.24291502813639e-07 1.42900491506809e-07 9.98810846358958e-25)
(3.81965095245026e-07 1.14039792731295e-07 -7.16730223061286e-25)
(4.50971299146992e-07 7.43161878737188e-08 -4.46358031902665e-25)
(5.34039929950197e-07 1.91410015458755e-08 2.48045636536931e-25)
(6.34381926243337e-07 -5.81169147343323e-08 9.94765347757144e-26)
(7.55598592124572e-07 -1.66808374055278e-07 2.79654185962158e-25)
(9.01324326310623e-07 -3.19812519577551e-07 -2.04597498241086e-24)
(1.07476157397633e-06 -5.33713687463115e-07 -8.74766372008906e-25)
(1.27631187217383e-06 -8.27473242537783e-07 -9.05001548227562e-25)
(1.50221604514341e-06 -1.21368713744332e-06 -2.53349276218241e-24)
(1.73324455171041e-06 -1.67429300337408e-06 -9.78432901758867e-25)
(1.93478378548077e-06 -2.08914370953348e-06 -1.09972596064364e-24)
(2.018771654173e-06 -2.12033766548148e-06 -2.86353466023307e-24)
(1.89255101981903e-06 -1.06513198288336e-06 -1.01062284244177e-24)
(1.37927397153108e-06 1.79628105172427e-06 -8.97882426407678e-25)
(6.44668174091456e-07 6.00324058325693e-06 -2.61810014405763e-24)
(-1.67058070252648e-07 6.45380656569533e-06 -3.095389205628e-25)
(4.33218161388922e-07 6.68612194550381e-06 1.6627160267662e-25)
(7.16484303763097e-07 6.66896611393492e-06 -3.62916935519243e-25)
(2.81211054267251e-07 2.65038986100476e-06 4.96802761998386e-25)
(-3.72309727528907e-07 -2.76060591254627e-07 4.04500794723205e-25)
(-8.43012951464274e-07 -1.49686655836589e-06 7.97936677918439e-26)
(-1.0937777273269e-06 -1.60939374838485e-06 -7.40240169244689e-26)
(-1.15921990396564e-06 -1.283958963483e-06 1.8768123573694e-25)
(-1.1171870545406e-06 -8.67373434182668e-07 2.05770263268567e-25)
(-1.01793419597327e-06 -4.97544741910855e-07 -5.85348127078162e-26)
(-8.97436096429412e-07 -2.05472549079972e-07 -5.44322503463638e-26)
(-7.74123514376196e-07 1.36842221179672e-08 9.7464739696332e-25)
(-6.58147064782998e-07 1.74790286223852e-07 5.79131105615013e-25)
(-5.53642270884445e-07 2.92294048619781e-07 2.40525436804664e-25)
(-4.61838751107934e-07 3.78025147382329e-07 7.71758340875575e-25)
(-3.82295835895147e-07 4.4090199110213e-07 7.74252198820238e-26)
(-3.13830398926185e-07 4.87399859871709e-07 6.5740858239096e-25)
(-2.54985158657046e-07 5.22130662443777e-07 4.91246184908239e-25)
(-2.04271017893072e-07 5.4831855346714e-07 3.63527551699056e-25)
(-1.60311873250859e-07 5.68230201115698e-07 6.93763892345797e-25)
(-1.21867588624609e-07 5.83411856238833e-07 1.57398842119032e-25)
(-8.7848948693857e-08 5.94959698516542e-07 4.48851046348276e-25)
(-5.72987938655255e-08 6.03609861250894e-07 2.37488268688299e-25)
(-2.93758577771931e-08 6.09875709621792e-07 2.31961322222091e-25)
(-3.31887087413512e-09 6.14088084419628e-07 4.81109940207469e-25)
(2.15684815059808e-08 6.16447451799111e-07 2.26647856144625e-25)
(4.59509339380439e-08 6.17052380179054e-07 1.302316728409e-25)
(7.04806897280026e-08 6.1591575896984e-07 1.55112258031301e-25)
(9.58095492319272e-08 6.12923033903925e-07 5.12866580526437e-25)
(1.22638999281628e-07 6.07888043264708e-07 -8.61672278525308e-26)
(1.5171572362504e-07 6.00476756456424e-07 -2.10947505992722e-25)
(1.83868847750268e-07 5.90173423745506e-07 5.21303994635676e-26)
(2.20042457349775e-07 5.76246569957113e-07 -3.56527782551611e-25)
(2.61309774029526e-07 5.57618184072896e-07 2.37249073493359e-25)
(3.08892931803957e-07 5.32712945621638e-07 2.95693867680292e-25)
(3.64146975889692e-07 4.99278465463257e-07 -2.27657916841943e-25)
(4.28540477421849e-07 4.54062348584742e-07 -3.00716545470584e-25)
(5.03503684829607e-07 3.9246354977342e-07 2.16940423859831e-25)
(5.90202825231776e-07 3.07995555105538e-07 -4.15472301298768e-26)
(6.89060688419185e-07 1.91724918639264e-07 -2.71667989199636e-26)
(7.98848477055237e-07 3.1729214541517e-08 -8.38110429452139e-25)
(9.15402950807357e-07 -1.8666198864488e-07 -3.54284012567009e-25)
(1.02856599792591e-06 -4.78884614213614e-07 -3.66132020174814e-25)
(1.11980662808163e-06 -8.51265086208927e-07 -9.89579468177621e-25)
(1.15312003917386e-06 -1.27595564140109e-06 -3.82803483137308e-25)
(1.07857190347518e-06 -1.61960659680787e-06 -3.70992364477014e-25)
(8.20132238082096e-07 -1.53568598569324e-06 -1.08952764269281e-24)
(3.4782179833338e-07 -3.35531030091518e-07 -2.55925462073559e-25)
(-2.96109410711083e-07 2.62318073601476e-06 -1.2975639734263e-25)
(-7.06965768271127e-07 6.74332653989209e-06 -9.43402757800813e-25)
(-4.20087568830808e-07 6.80052019801203e-06 1.79077359049188e-25)
(5.37421993964706e-07 6.48962972363517e-06 3.45189297001239e-25)
(1.50529589201474e-06 6.8243516591789e-06 6.14127111934643e-25)
(1.31381783784592e-06 3.12167338543261e-06 7.08196367324724e-25)
(6.42114394748218e-07 2.38277102392909e-07 5.11134668611629e-25)
(-1.17980085486024e-08 -1.07613709532803e-06 4.75042269429053e-25)
(-4.6755087616801e-07 -1.30685979995792e-06 4.40919901135295e-25)
(-7.14278159328131e-07 -1.07391876081738e-06 3.90161045396052e-25)
(-8.11505891174777e-07 -7.16575713433182e-07 4.27407391201543e-25)
(-8.13645303932258e-07 -3.79754670542414e-07 5.43880998615707e-25)
(-7.64093211635401e-07 -1.0339147982215e-07 5.64918021750919e-25)
(-6.89621015081718e-07 1.1039166704995e-07 6.73563186169591e-25)
(-6.06866137088578e-07 2.71828691190416e-07 7.00653216896113e-25)
(-5.24881780001902e-07 3.92513160572246e-07 7.02318736515592e-25)
(-4.48310907075758e-07 4.82595598729043e-07 6.35973178918935e-25)
(-3.79090218000244e-07 5.50059433214646e-07 6.49232761380923e-25)
(-3.17633045111112e-07 6.00885709357464e-07 7.94843769919902e-25)
(-2.63553824217334e-07 6.39486317696058e-07 8.44970172452541e-25)
(-2.16079615038731e-07 6.68997519420575e-07 9.52999106301921e-25)
(-1.74308956831328e-07 6.9168611766797e-07 9.60910060271937e-25)
(-1.37319362905072e-07 7.09145351108913e-07 8.21374754661739e-25)
(-1.04235286426575e-07 7.22510246324364e-07 7.52977895958821e-25)
(-7.42523979330442e-08 7.32563817812566e-07 7.0303683827551e-25)
(-4.66274828621223e-08 7.39858645828926e-07 5.96322299645159e-25)
(-2.068111379283e-08 7.44758676261636e-07 6.43659830475283e-25)
(4.23265986539601e-09 7.47481327329006e-07 6.72683035821971e-25)
(2.87283922140855e-08 7.48143482328252e-07 5.42583726349666e-25)
(5.3404849049751e-08 7.467372703204e-07 4.45949378370182e-25)
(7.88735997766075e-08 7.43168590582059e-07 2.39708469012876e-25)
(1.05772028218989e-07 7.37218190677437e-07 1.42326798824271e-25)
(1.34770473284779e-07 7.28511297920014e-07 1.30020469612607e-25)
(1.66597772798262e-07 7.16516170960614e-07 -8.30082690679777e-26)
(2.02050265850727e-07 7.00438120362666e-07 -1.59224050705758e-25)
(2.41981566966073e-07 6.79160362247266e-07 -2.16292084760172e-25)
(2.87293313668907e-07 6.51069395619454e-07 -1.32324990073711e-25)
(3.38864394691032e-07 6.13914881537679e-07 6.29308948026156e-26)
(3.97438395795212e-07 5.64530343566641e-07 4.05755095220026e-27)
(4.63372002096043e-07 4.98523224468648e-07 2.18374545392639e-26)
(5.36222832023003e-07 4.09891311354186e-07 -1.37829257617296e-25)
(6.14017984826338e-07 2.90640375745226e-07 -1.64512442720332e-25)
(6.92073054777981e-07 1.30529130410385e-07 -1.58901775593342e-25)
(7.612606442223e-07 -8.22345677216367e-08 -1.71834606660687e-25)
(8.04831337031456e-07 -3.58438240175371e-07 -1.63496001569103e-25)
(7.95722252211764e-07 -6.97412370055177e-07 -1.52864810993841e-25)
(6.90169047901608e-07 -1.06241905273861e-06 -1.51884863308368e-25)
(4.33511169155271e-07 -1.31346624134645e-06 -1.39405110624606e-25)
(-3.28071451794153e-08 -1.11256758713831e-06 -1.44527831082123e-25)
(-6.93612015199849e-07 1.7742182184005e-07 -7.42514371252409e-26)
(-1.36135376560076e-06 3.08622034852015e-06 1.15573139542734e-26)
(-1.52660109622287e-06 6.88703580615726e-06 4.81937824638719e-27)
(-5.34149752332549e-07 6.59985860311338e-06 1.94828255109191e-25)
(5.44732521923026e-07 5.95323616025341e-06 4.11508527940878e-25)
(1.83389618165805e-06 6.57007818770166e-06 1.05007727347044e-24)
(1.81122376629298e-06 3.30013242074332e-06 7.5736809895381e-25)
(1.20016846914849e-06 5.53535671579786e-07 5.43274661727908e-25)
(4.9578690740577e-07 -8.040286235983e-07 7.82509935898114e-25)
(-4.74255446058062e-08 -1.13800274722954e-06 8.06052201235014e-25)
(-3.89800714605339e-07 -9.99800587699841e-07 4.71842494019031e-25)
(-5.70512040862881e-07 -7.10485130169756e-07 5.03888667216758e-25)
(-6.39971862821501e-07 -4.16231550440098e-07 8.51046748297936e-25)
(-6.4158240705996e-07 -1.63860675744651e-07 8.42932943606936e-25)
(-6.05006295096398e-07 3.80717669436627e-08 3.47973350912488e-25)
(-5.49786405239077e-07 1.95009453540814e-07 6.06891846706521e-25)
(-4.8764531778749e-07 3.15375921265144e-07 8.66518961802184e-25)
(-4.25312450219641e-07 4.0731664860474e-07 3.92117559975455e-25)
(-3.66309256476667e-07 4.77591677529096e-07 8.44794783194751e-25)
(-3.12197545254665e-07 5.31514296488641e-07 7.56753638903784e-25)
(-2.63423567016945e-07 5.73094996597112e-07 8.6015164137129e-25)
(-2.19805322511664e-07 6.0531134887257e-07 1.16559946926583e-24)
(-1.80848037845994e-07 6.30339131664384e-07 9.89110322539331e-25)
(-1.4592521380683e-07 6.49765413086458e-07 1.10466998050799e-24)
(-1.14370735451022e-07 6.64716582747074e-07 8.32248253563503e-25)
(-8.55235457520048e-08 6.76010739290349e-07 9.37761100807611e-25)
(-5.87510186070488e-08 6.84215759531335e-07 6.65542570152894e-25)
(-3.34557666447817e-08 6.89718556977786e-07 6.50368961179555e-25)
(-9.06015424089786e-09 6.92756396314452e-07 9.01947726109414e-25)
(1.49921509461016e-08 6.93445524835336e-07 6.59582986916123e-25)
(3.9251925794585e-08 6.91781231230374e-07 6.07617764924914e-25)
(6.42701226065901e-08 6.876634321344e-07 -2.25763915045908e-26)
(9.06118936745638e-08 6.80847832265051e-07 1.85901301340628e-25)
(1.18870541905163e-07 6.70964694496971e-07 3.77491530903021e-25)
(1.49664857464031e-07 6.57443230862998e-07 -2.07968251112991e-25)
(1.83639690702285e-07 6.39478960715801e-07 -8.35367146660975e-27)
(2.21442888151724e-07 6.15933681778375e-07 -5.32650952401059e-25)
(2.63684865188173e-07 5.85227539320457e-07 -4.37239133250256e-25)
(3.10829022849308e-07 5.45183568884126e-07 2.78232440668036e-25)
(3.63025618677021e-07 4.92828086803589e-07 1.32644095053131e-25)
(4.19793050253066e-07 4.24131782940926e-07 -3.29486552425696e-26)
(4.79529846382421e-07 3.33804832569317e-07 -1.79050732290681e-25)
(5.38665062927193e-07 2.15047003192726e-07 -3.0110422747139e-25)
(5.90405744684751e-07 5.9650802528626e-08 2.75063994830942e-25)
(6.22905477604008e-07 -1.40977561379408e-07 6.4438199793981e-27)
(6.16433820125489e-07 -3.92784497674938e-07 2.9253765261056e-26)