/*--------------------------------*- C++ -*----------------------------------*\
  =========                 |
  \\      /  F ield         | OpenFOAM: The Open Source CFD Toolbox
   \\    /   O peration     | Website:  https://openfoam.org
    \\  /    A nd           | Version:  10
     \\/     M anipulation  |
\*---------------------------------------------------------------------------*/
FoamFile
{
    format      ascii;
    class       volScalarField;
    location    "1.8";
    object      alphat;
}
// * * * * * * * * * * * * * * * * * * * * * * * * * * * * * * * * * * * * * //

dimensions      [1 -1 -1 0 0 0 0];

internalField   nonuniform List<scalar> 
2500
(
1.94318485655976e-13
1.39856884209558e-12
4.6106398437856e-12
6.50054220055191e-12
7.30132325798212e-12
7.57502326911256e-12
7.65444454280032e-12
7.67468829953323e-12
7.67933312798469e-12
7.68030871071401e-12
7.68049633103088e-12
7.68052613428169e-12
7.68052651721989e-12
7.68052325331558e-12
7.68051964233121e-12
7.68051635636885e-12
7.68051356878682e-12
7.6805112211295e-12
7.68050918483875e-12
7.68050736282051e-12
7.68050573318475e-12
7.68050428049735e-12
7.6805029886221e-12
7.68050182854177e-12
7.68050082680527e-12
7.68049999396266e-12
7.68049930004278e-12
7.68049877330581e-12
7.68049844389115e-12
7.68049837171389e-12
7.68049856608121e-12
7.68049902108647e-12
7.6804995846009e-12
7.68050015951013e-12
7.68050112782898e-12
7.68050233133733e-12
7.68050364215768e-12
7.68050366883533e-12
7.68049264296767e-12
7.68042209718215e-12
7.68007704290091e-12
7.67853309943105e-12
7.67207132654314e-12
7.64699715859432e-12
7.55806496859351e-12
7.27541016816932e-12
6.49249491884381e-12
4.67997666508756e-12
1.47352643317504e-12
2.07557674672086e-13
7.95888686905653e-12
3.06791142702371e-10
1.13672268726239e-09
1.64426849271639e-09
1.86898118283789e-09
1.94885498581899e-09
1.97282342393026e-09
1.97910937101074e-09
1.98058710619694e-09
1.98090408771561e-09
1.98096643744798e-09
1.98097694542733e-09
1.98097747933118e-09
1.98097668859321e-09
1.98097577134714e-09
1.98097492394e-09
1.98097419607207e-09
1.9809735745645e-09
1.98097303185677e-09
1.98097254903832e-09
1.98097211912522e-09
1.98097173691674e-09
1.98097139840809e-09
1.98097109215119e-09
1.98097082606372e-09
1.98097060653487e-09
1.98097042121324e-09
1.98097028070616e-09
1.98097019544042e-09
1.98097017252355e-09
1.98097021507413e-09
1.98097032182227e-09
1.98097046027941e-09
1.98097061145097e-09
1.98097085364452e-09
1.98097115330644e-09
1.98097145882437e-09
1.9809712889421e-09
1.98096739146447e-09
1.98094414999506e-09
1.98083338110247e-09
1.98034529827809e-09
1.978337121868e-09
1.97069795801705e-09
1.94422983695817e-09
1.86241343617449e-09
1.64320375571797e-09
1.15522655021604e-09
3.24703433804647e-10
8.99038481541717e-12
2.33066710413288e-11
5.10304111311399e-09
1.48588380230778e-06
2.14898981910452e-06
2.44713743873612e-06
2.55605238263361e-06
2.58971623532237e-06
2.59879928788929e-06
2.60099151683846e-06
2.60147340006472e-06
2.60157068282705e-06
2.60158797151497e-06
2.60158951405424e-06
2.60158870301153e-06
2.60158765878441e-06
2.60158667389979e-06
2.60158581801167e-06
2.60158508112746e-06
2.60158443566485e-06
2.60158386006108e-06
2.60158334536786e-06
2.6015828848869e-06
2.60158247445386e-06
2.60158210840938e-06
2.60158178790513e-06
2.60158151599442e-06
2.60158129142895e-06
2.60158111552121e-06
2.60158099919708e-06
2.60158096044697e-06
2.60158099061591e-06
2.60158109486363e-06
2.60158124457041e-06
2.60158141872626e-06
2.60158167694794e-06
2.60158199903854e-06
2.60158228949503e-06
2.60158179457401e-06
2.60157563175238e-06
2.60154114095993e-06
2.60137963966118e-06
2.6006757288222e-06
2.59781465743002e-06
2.58708536824753e-06
2.5505277338547e-06
2.43964236154291e-06
2.14814663260865e-06
1.50704394173863e-06
5.35678859690967e-09
2.57317571969628e-11
3.7530653845153e-11
8.56494002367227e-09
2.47379024722114e-06
3.54391086744662e-06
4.0237403425689e-06
4.20031681650975e-06
4.25555789824732e-06
4.27067710293829e-06
4.27438248389723e-06
4.2752101178029e-06
4.27538021891847e-06
4.27541147494664e-06
4.27541511635667e-06
4.2754140439371e-06
4.27541260059666e-06
4.27541121169396e-06
4.27540999522308e-06
4.27540894087316e-06
4.27540801219063e-06
4.27540718154563e-06
4.27540643388619e-06
4.27540576074921e-06
4.27540515792714e-06
4.27540461990852e-06
4.27540414614924e-06
4.27540373894672e-06
4.27540339886845e-06
4.27540312648084e-06
4.27540294060368e-06
4.27540285259133e-06
4.27540284424062e-06
4.27540296640654e-06
4.27540314151599e-06
4.2754033641739e-06
4.27540368023478e-06
4.27540409395005e-06
4.27540443465108e-06
4.27540351781275e-06
4.27539367866545e-06
4.27533986785457e-06
4.27508663900459e-06
4.27397464019578e-06
4.26942241241741e-06
4.25224349799227e-06
4.19341306267508e-06
4.0142864149681e-06
3.54173418757758e-06
2.49620162184757e-06
8.8432965957101e-09
4.01630492748045e-11
4.85289095002337e-11
1.1303973039477e-08
3.24421478096136e-06
4.61950792822244e-06
5.23619208034484e-06
5.46468037644554e-06
5.53690624250579e-06
5.5569193043569e-06
5.56189087651107e-06
5.5630175428686e-06
5.56325287894644e-06
5.56329739816256e-06
5.56330350784429e-06
5.56330270363299e-06
5.56330118365884e-06
5.563299669945e-06
5.56329832671944e-06
5.56329715192409e-06
5.56329610983887e-06
5.56329517217686e-06
5.56329432259682e-06
5.56329355232841e-06
5.56329285750009e-06
5.56329223349388e-06
5.56329167986791e-06
5.56329119764446e-06
5.56329078741015e-06
5.56329045019053e-06
5.56329020123215e-06
5.56329005185817e-06
5.56329000809013e-06
5.56329006460054e-06
5.56329020848645e-06
5.56329041267087e-06
5.56329070420489e-06
5.56329108641386e-06
5.56329137812574e-06
5.56328997603779e-06
5.56327735498803e-06
5.56321018178709e-06
5.56289270397236e-06
5.56148912683671e-06
5.55570556543531e-06
5.5337527179644e-06
5.45822092578488e-06
5.22747393010809e-06
4.61731928086315e-06
3.26351756131645e-06
1.15514994440585e-08
5.09786679740262e-11
5.62241220658469e-11
1.32826343245386e-08
3.8034270187196e-06
5.39703656800441e-06
6.11277769219771e-06
6.37963155461128e-06
6.46473856841988e-06
6.48857082298969e-06
6.49456077450425e-06
6.49593559157687e-06
6.49622689586395e-06
6.49628339082857e-06
6.49629207553509e-06
6.49629182076394e-06
6.49629044143138e-06
6.49628899291484e-06
6.49628768358992e-06
6.49628652412665e-06
6.49628548579032e-06
6.49628454371724e-06
6.49628368345266e-06
6.49628289724299e-06
6.49628218160606e-06
6.49628153355583e-06
6.49628095281783e-06
6.49628043940772e-06
6.4962799939463e-06
6.49627961757385e-06
6.49627931864508e-06
6.49627912250916e-06
6.49627900789602e-06
6.49627898435394e-06
6.49627906412256e-06
6.49627920704733e-06
6.49627942424653e-06
6.49627969865377e-06
6.49627983326457e-06
6.49627785015341e-06
6.49626323083229e-06
6.4961870489755e-06
6.49582575151771e-06
6.49422014360413e-06
6.48757046520847e-06
6.46221667344771e-06
6.37467735211134e-06
6.1066405762516e-06
5.39705695609322e-06
3.8209842971369e-06
1.35001809716538e-08
5.84842897912537e-11
6.12222620285001e-11
1.461026358564e-08
4.18479517331192e-06
5.92780203064788e-06
6.7124515163105e-06
7.00660115219097e-06
7.10111366175043e-06
7.12781357139506e-06
7.13459068032432e-06
7.1361631172938e-06
7.13650046024202e-06
7.13656724170131e-06
7.13657831222887e-06
7.13657870650029e-06
7.13657757746384e-06
7.13657629490741e-06
7.13657510688076e-06
7.13657403797705e-06
7.13657306900431e-06
7.13657218080297e-06
7.13657136224357e-06
7.13657060729317e-06
7.13656991341511e-06
7.13656927881964e-06
7.13656870339269e-06
7.13656818698044e-06
7.13656773026141e-06
7.13656733423276e-06
7.13656700337792e-06
7.13656675422788e-06
7.13656657041461e-06
7.13656648210483e-06
7.13656648343144e-06
7.1365665490473e-06
7.13656666651511e-06
7.13656680989498e-06
7.13656672248487e-06
7.13656421017925e-06
7.13654821409371e-06
7.13646614533056e-06
7.13607603340894e-06
7.13433587580929e-06
7.12710195389297e-06
7.09942968291533e-06
7.00364625460185e-06
6.70993241160396e-06
5.93197133418061e-06
4.20358053841787e-06
1.48170440382414e-08
6.33940101351599e-11
6.42759678132183e-11
1.54468696858959e-08
4.43071128362368e-06
6.27160212809262e-06
7.10230284634457e-06
7.41513306862498e-06
7.51625323774628e-06
7.54502404715102e-06
7.55238590736526e-06
7.55410944094128e-06
7.55448308521814e-06
7.55455824858906e-06
7.55457138592325e-06
7.55457243883244e-06
7.55457158067763e-06
7.55457049600503e-06
7.5545694599116e-06
7.55456850987642e-06
7.55456763621473e-06
7.5545668259265e-06
7.55456607145734e-06
7.55456536872993e-06
7.55456471633637e-06
7.55456411333669e-06
7.55456355994206e-06
7.55456305613441e-06
7.5545626026303e-06
7.55456220015647e-06
7.55456185114681e-06
7.55456156246178e-06
7.55456133382631e-06
7.55456117910809e-06
7.55456109900761e-06
7.55456107488469e-06
7.55456110708141e-06
7.5545611390788e-06
7.55456082135022e-06
7.55455787915082e-06
7.55454100433524e-06
7.5544552059419e-06
7.55404690365821e-06
7.55222095420548e-06
7.54461034549677e-06
7.51542957289437e-06
7.41425033967689e-06
7.10369409610899e-06
6.28094454425691e-06
4.45309786762046e-06
1.56604714411858e-08
6.64499380741733e-11
6.60468060898885e-11
1.59461568225355e-08
4.58144931571462e-06
6.48381915824846e-06
7.34409581164665e-06
7.66922469287878e-06
7.77481166815839e-06
7.80502124561097e-06
7.81280081215484e-06
7.81463535177242e-06
7.81503645403804e-06
7.81511813241024e-06
7.81513298713052e-06
7.81513464609228e-06
7.81513399826278e-06
7.81513309897589e-06
7.81513220943958e-06
7.81513137664133e-06
7.8151305988448e-06
7.81512986848512e-06
7.81512918120926e-06
7.81512853471887e-06
7.81512792863966e-06
7.81512736271706e-06
7.81512683751048e-06
7.81512635319807e-06
7.81512591054345e-06
7.81512551006831e-06
7.81512515328094e-06
7.8151248432014e-06
7.81512458201905e-06
7.81512437642344e-06
7.8151242282792e-06
7.81512412907432e-06
7.81512407380847e-06
7.81512398790285e-06
7.81512348107551e-06
7.81512028550669e-06
7.81510284800197e-06
7.81501477169486e-06
7.81459546133928e-06
7.8127171934719e-06
7.8048746026951e-06
7.77475724587888e-06
7.67021016105398e-06
7.34911947783259e-06
6.49837736453648e-06
4.60849291844874e-06
1.61760119164017e-08
6.82716375665827e-11
6.70283270693794e-11
1.62303187244092e-08
4.66971739854064e-06
6.60917497140481e-06
7.48772887840373e-06
7.82065494759934e-06
7.92915031150678e-06
7.96032254899606e-06
7.9683893700679e-06
7.97030237644543e-06
7.97072343799071e-06
7.97080996523413e-06
7.97082613748216e-06
7.9708282611257e-06
7.9708278369013e-06
7.97082709295631e-06
7.97082632701475e-06
7.97082559460659e-06
7.97082490006637e-06
7.97082424006109e-06
7.9708236127683e-06
7.97082301732188e-06
7.97082245418749e-06
7.97082192364079e-06
7.9708214265436e-06
7.97082096324822e-06
7.97082053455751e-06
7.97082014085971e-06
7.97081978318887e-06
7.97081946291914e-06
7.97081918189469e-06
7.97081894335172e-06
7.97081874889853e-06
7.97081859419662e-06
7.97081846818773e-06
7.97081829756032e-06
7.97081767096795e-06
7.97081430686185e-06
7.97079651017169e-06
7.97070709321531e-06
7.970281395277e-06
7.96837258782213e-06
7.96039337329365e-06
7.92972026387114e-06
7.82316462078462e-06
7.49577605817913e-06
6.62829480615591e-06
4.70132640359208e-06
1.64784505976273e-08
6.93170503944472e-11
6.75513086155168e-11
1.63854546114039e-08
4.71932491495513e-06
6.6803258028912e-06
7.56976936509054e-06
7.90746396672042e-06
8.01778628869667e-06
8.04957984913389e-06
8.05783716761463e-06
8.05980363500345e-06
8.06023866805126e-06
8.06032867536759e-06
8.0603458013641e-06
8.06034828427737e-06
8.06034804042046e-06
8.06034741623814e-06
8.06034674624326e-06
8.0603460929418e-06
8.06034546495673e-06
8.0603448619527e-06
8.06034428393041e-06
8.06034373107634e-06
8.06034320447083e-06
8.06034270477626e-06
8.06034223308308e-06
8.06034178987104e-06
8.06034137597224e-06
8.06034099169098e-06
8.06034063779675e-06
8.06034031491e-06
8.06034002424402e-06
8.0603397673058e-06
8.06033954514341e-06
8.06033935501441e-06
8.06033918441533e-06
8.06033895832731e-06
8.06033825464135e-06
8.06033478082222e-06
8.06031676618223e-06
8.06022658989308e-06
8.05979733323852e-06
8.05787142873981e-06
8.04981508799438e-06
8.01882597183036e-06
7.91112237055606e-06
7.58012358211097e-06
6.70303302644467e-06
4.75474764412447e-06
1.66495459844113e-08
6.98970567589663e-11
6.78204791068604e-11
1.64671051120937e-08
4.74619772943559e-06
6.71928234446233e-06
7.61499620268174e-06
7.95551012753205e-06
8.0669419454264e-06
8.09912312449065e-06
8.10750251512002e-06
8.1095041625716e-06
8.10994863497183e-06
8.11004105874466e-06
8.11005885555116e-06
8.11006159559134e-06
8.11006148177054e-06
8.11006094432442e-06
8.11006034497764e-06
8.1100597509742e-06
8.11005917372237e-06
8.11005861484703e-06
8.11005807556541e-06
8.11005755677979e-06
8.11005705998647e-06
8.11005658610888e-06
8.11005613639146e-06
8.11005571140162e-06
8.11005531198648e-06
8.11005493839736e-06
8.11005459124985e-06
8.11005427079562e-06
8.11005397779019e-06
8.11005371285859e-06
8.1100534765529e-06
8.1100532665761e-06
8.1100530699854e-06
8.11005281034897e-06
8.11005206041702e-06
8.11004852051265e-06
8.11003038015876e-06
8.10993979019484e-06
8.10950862633836e-06
8.10757351845292e-06
8.09947532185105e-06
8.06831346962662e-06
7.95997896655211e-06
7.62698870276025e-06
6.74458343390259e-06
4.78447255546438e-06
1.67432641674767e-08
7.02092954919582e-11
6.79548373585856e-11
1.650870984368e-08
4.76028322958885e-06
6.73993168851706e-06
7.63914380517714e-06
7.98127304821977e-06
8.09335775144524e-06
8.12577319216639e-06
8.13422833657938e-06
8.13625239334049e-06
8.13670303559978e-06
8.13679708388869e-06
8.13681534165038e-06
8.13681825759305e-06
8.1368182315929e-06
8.13681775533115e-06
8.13681720694781e-06
8.13681665671162e-06
8.13681611771092e-06
8.13681559276615e-06
8.1368150838567e-06
8.1368145923337e-06
8.13681411995198e-06
8.13681366780004e-06
8.13681323721319e-06
8.13681282881462e-06
8.1368124434547e-06
8.13681208135126e-06
8.13681174302492e-06
8.13681142853611e-06
8.13681113836112e-06
8.13681087266918e-06
8.13681063166316e-06
8.13681041308285e-06
8.1368102037888e-06
8.13680992657067e-06
8.13680915185432e-06
8.13680557583762e-06
8.13678736750909e-06
8.13669656154967e-06
8.13626441312018e-06
8.13432452861011e-06
8.1262044258714e-06
8.09495149362314e-06
7.98628238225083e-06
7.65223118811978e-06
6.76698375020962e-06
4.80052010272922e-06
1.67931396959579e-08
7.03728968135857e-11
6.80200957159015e-11
1.65293067462944e-08
4.76745119213744e-06
6.75056232845875e-06
7.65167040930281e-06
7.99469870741396e-06
8.10715655995462e-06
8.13970946810519e-06
8.14821024031449e-06
8.15024814607661e-06
8.15070269951282e-06
8.150797806134e-06
8.15081637008559e-06
8.15081940432819e-06
8.15081944130473e-06
8.1508190088167e-06
8.15081849756139e-06
8.1508179800471e-06
8.15081747035411e-06
8.15081697199508e-06
8.15081648740448e-06
8.15081601820114e-06
8.15081556628065e-06
8.15081513282864e-06
8.15081471922758e-06
8.15081432613155e-06
8.15081395438459e-06
8.1508136041855e-06
8.15081327598968e-06
8.15081296975552e-06
8.15081268579384e-06
8.15081242403567e-06
8.15081218446031e-06
8.1508119647485e-06
8.15081175166966e-06
8.15081146771298e-06
8.15081068238646e-06
8.15080708967468e-06
8.15078884801831e-06
8.15069793491527e-06
8.15026529671299e-06
8.14832301569867e-06
8.14019182036918e-06
8.10889240322591e-06
8.00005142940273e-06
7.66545246825629e-06
6.77873040445951e-06
4.80895124022106e-06
1.68190034811589e-08
7.04565462417507e-11
6.80510214711829e-11
1.65392420711464e-08
4.77100291490868e-06
6.75589278078732e-06
7.65800157970699e-06
8.00151715462357e-06
8.11418262993817e-06
8.14681404092644e-06
8.15534154693271e-06
8.15738777520105e-06
8.15784473957936e-06
8.15794051642064e-06
8.15795927907086e-06
8.15796239504209e-06
8.15796247939833e-06
8.15796207973362e-06
8.15796159688538e-06
8.15796110511154e-06
8.1579606190792e-06
8.15796014268211e-06
8.15795967864418e-06
8.15795922872983e-06
8.15795879489499e-06
8.15795837836947e-06
8.15795798055486e-06
8.15795760211968e-06
8.1579572438973e-06
8.15795690607031e-06
8.1579565890519e-06
8.15795629273669e-06
8.15795601733772e-06
8.1579557626546e-06
8.15795552853226e-06
8.1579553125961e-06
8.15795510160681e-06
8.15795481806425e-06
8.15795403129423e-06
8.15795043415324e-06
8.15793217945779e-06
8.15784121740137e-06
8.15740834539951e-06
8.15546489990155e-06
8.14732825282427e-06
8.11600579234738e-06
8.00707903649724e-06
7.67220505678008e-06
6.78473833423438e-06
4.81327319455128e-06
1.6832103913441e-08
7.04983742537146e-11
6.8065351594764e-11
1.65439218428223e-08
4.77272056341996e-06
6.75850230025018e-06
7.66112672939959e-06
8.00490008581074e-06
8.1176782846912e-06
8.15035342089653e-06
8.15889619753969e-06
8.16094730043907e-06
8.16140571442624e-06
8.16150190676756e-06
8.16152079758619e-06
8.16152397180843e-06
8.16152409342371e-06
8.16152372005378e-06
8.16152326050102e-06
8.1615227903606e-06
8.16152232463326e-06
8.16152186741563e-06
8.16152142168208e-06
8.16152098927198e-06
8.16152057213572e-06
8.1615201715119e-06
8.16151978880259e-06
8.1615194246801e-06
8.16151907996383e-06
8.16151875482406e-06
8.16151844963754e-06
8.16151816426156e-06
8.16151789883966e-06
8.16151765309652e-06
8.1615174267895e-06
8.16151721751353e-06
8.16151701207552e-06
8.16151673317053e-06
8.16151595033557e-06
8.16151235588221e-06
8.16149409935505e-06
8.16140311832589e-06
8.16097014046018e-06
8.15902614645718e-06
8.15088689010094e-06
8.11955329388326e-06
8.0105847811895e-06
7.67557608400964e-06
6.78774226735589e-06
4.81543959616703e-06
1.68385979563159e-08
7.05188696204299e-11
6.80718468613608e-11
1.65460769155541e-08
4.77353267760326e-06
6.75975185520828e-06
7.66263625607934e-06
8.00654304368302e-06
8.11938110169745e-06
8.15208004657508e-06
8.16063134635928e-06
8.16268523902642e-06
8.1631445065532e-06
8.16324095347956e-06
8.16325992813746e-06
8.16326314597203e-06
8.16326329876744e-06
8.1632629482849e-06
8.16326250954839e-06
8.16326205910705e-06
8.16326161210097e-06
8.16326117270334e-06
8.16326074426138e-06
8.16326032864916e-06
8.16325992773902e-06
8.16325954274277e-06
8.16325917504882e-06
8.16325882532803e-06
8.16325849438377e-06
8.16325818237506e-06
8.16325788964602e-06
8.16325761602293e-06
8.16325736159694e-06
8.16325712603882e-06
8.16325690904336e-06
8.16325670818612e-06
8.16325651033798e-06
8.16325623845367e-06
8.16325546244295e-06
8.1632518743873e-06
8.16323362184613e-06
8.16314263688959e-06
8.16270961536804e-06
8.16076537159711e-06
8.15262489469856e-06
8.12128602928528e-06
8.012297612199e-06
7.67722430260669e-06
6.78921330291053e-06
4.81650323722046e-06
1.68417528247407e-08
7.05287243616553e-11
6.80747303023116e-11
1.65470474535242e-08
4.77390836649766e-06
6.76033780655884e-06
7.66335077734219e-06
8.00732532320425e-06
8.12019455469801e-06
8.15290620522218e-06
8.1614621647547e-06
8.16351762201792e-06
8.16397738437986e-06
8.16407398751185e-06
8.16409301903404e-06
8.16409627155118e-06
8.16409645197441e-06
8.1640961227134e-06
8.16409570373714e-06
8.16409527220474e-06
8.16409484318188e-06
8.16409442076801e-06
8.16409400905604e-06
8.16409360993921e-06
8.16409322509839e-06
8.16409285567335e-06
8.16409250302569e-06
8.16409216782173e-06
8.16409185084964e-06
8.16409155225716e-06
8.16409127235268e-06
8.16409101093542e-06
8.16409076804628e-06
8.16409054330957e-06
8.1640903363652e-06
8.16409014476095e-06
8.16408995540166e-06
8.16408969144406e-06
8.16408892311504e-06
8.16408534244251e-06
8.16406709610365e-06
8.16397611414957e-06
8.16354307812942e-06
8.16159872521707e-06
8.15345768730555e-06
8.12211636449974e-06
8.01311860341748e-06
7.67801481656766e-06
6.78991981118183e-06
4.8170152931859e-06
1.68432559035059e-08
7.05333777253272e-11
6.8075988987235e-11
1.65474742654755e-08
4.77407818417717e-06
6.76060682010791e-06
7.66368235513973e-06
8.00769077820932e-06
8.12057598639794e-06
8.15329430283834e-06
8.16185276506421e-06
8.16390908540735e-06
8.16436913248569e-06
8.1644658334106e-06
8.1644849058694e-06
8.1644881877596e-06
8.16448839385431e-06
8.16448808517902e-06
8.16448768578725e-06
8.16448727313125e-06
8.16448686190058e-06
8.16448645583161e-06
8.16448606055562e-06
8.16448567796973e-06
8.16448530936888e-06
8.16448495574899e-06
8.16448461842842e-06
8.16448429806698e-06
8.1644839954397e-06
8.16448371068863e-06
8.16448344407548e-06
8.16448319536536e-06
8.1644829645512e-06
8.16448275121067e-06
8.16448255492539e-06
8.16448237319472e-06
8.16448219289017e-06
8.16448193721009e-06
8.16448117646813e-06
8.16447760277253e-06
8.16445936312534e-06
8.16436838720952e-06
8.16393534998729e-06
8.16199095244112e-06
8.15384965892385e-06
8.12250719374382e-06
8.01350507218266e-06
7.67838705217651e-06
6.79025275619953e-06
4.81725698306808e-06
1.6843957616337e-08
7.05355154594857e-11
6.8076518972913e-11
1.65476560647838e-08
4.77415270389386e-06
6.76072739295143e-06
7.66383304978532e-06
8.00785823995543e-06
8.12075154692236e-06
8.15347331516884e-06
8.16203310245876e-06
8.16408989330351e-06
8.16455010460465e-06
8.16464686907693e-06
8.16466597287806e-06
8.1646692807378e-06
8.16466951096846e-06
8.16466922231232e-06
8.16466884236408e-06
8.16466844857178e-06
8.16466805482836e-06
8.16466766395578e-06
8.16466728449205e-06
8.16466691826287e-06
8.16466656589356e-06
8.16466622814136e-06
8.16466590626154e-06
8.16466560090637e-06
8.16466531284841e-06
8.16466504224851e-06
8.16466478927956e-06
8.1646645536683e-06
8.16466433535359e-06
8.16466413386683e-06
8.16466394872253e-06
8.16466377735196e-06
8.16466360651501e-06
8.16466335925244e-06
8.16466260569676e-06
8.16465903818959e-06
8.16464080503645e-06
8.16454983617474e-06
8.16411680324876e-06
8.16217238952211e-06
8.15403097823351e-06
8.12268797225387e-06
8.01368379418116e-06
7.67855911788378e-06
6.79040657291618e-06
4.81736859491839e-06
1.68442774209251e-08
7.05364727356855e-11
6.80767348203463e-11
1.65477270530055e-08
4.77418371087384e-06
6.76077963121845e-06
7.66389978944299e-06
8.00793326437693e-06
8.12083066381408e-06
8.15355420519351e-06
8.16211468654032e-06
8.16417173208898e-06
8.16463203917666e-06
8.16472884672332e-06
8.16474797552086e-06
8.16475130707582e-06
8.16475155958206e-06
8.16475128989591e-06
8.16475092887331e-06
8.16475055369768e-06
8.1647501770011e-06
8.16474979992762e-06
8.16474943558495e-06
8.16474908542837e-06
8.16474874916388e-06
8.1647484272565e-06
8.16474812088929e-06
8.16474783070606e-06
8.16474755751178e-06
8.16474730157623e-06
8.16474706285309e-06
8.16474684101064e-06
8.16474663593141e-06
8.164746447098e-06
8.16474627395808e-06
8.16474611385982e-06
8.16474595339789e-06
8.1647457153194e-06
8.16474496940749e-06
8.16474140835658e-06
8.16472318210734e-06
8.16463222092395e-06
8.16419919463377e-06
8.16225477716402e-06
8.1541133093776e-06
8.12277003388973e-06
8.01376485207542e-06
7.67863700244932e-06
6.79047595866503e-06
4.81741864106581e-06
1.68444173982225e-08
7.05368838284634e-11
6.80767415961866e-11
1.65477387028594e-08
4.77419459569657e-06
6.76080092714007e-06
7.66392828988402e-06
8.00796585534032e-06
8.12086534044512e-06
8.15358979654511e-06
8.16215064048134e-06
8.16420782316913e-06
8.16466818620375e-06
8.16476502317257e-06
8.16478417156421e-06
8.16478752590805e-06
8.16478779721572e-06
8.16478754356153e-06
8.16478719919773e-06
8.16478684091898e-06
8.16478647989878e-06
8.16478611534256e-06
8.16478576525132e-06
8.16478543011354e-06
8.16478510894986e-06
8.16478480203954e-06
8.16478451050313e-06
8.16478423497852e-06
8.16478397640166e-06
8.16478373548157e-06
8.1647835115336e-06
8.16478330410258e-06
8.1647831130108e-06
8.16478293769523e-06
8.16478277753885e-06
8.16478262981059e-06
8.16478248092705e-06
8.16478225331146e-06
8.16478151637322e-06
8.16477796315114e-06
8.1647597449596e-06
8.16466879226062e-06
8.16423577392045e-06
8.16229135838305e-06
8.15414986149433e-06
8.12280643962408e-06
8.01380074593425e-06
7.6786713140935e-06
6.79050627624808e-06
4.81743997618639e-06
1.68444743502291e-08
7.05370733952017e-11
6.80765569725476e-11
1.65477217701727e-08
4.77419649538488e-06
6.76080782814906e-06
7.66393932423827e-06
8.00797916588718e-06
8.12087979910579e-06
8.15360474572599e-06
8.16216578107308e-06
8.16422303547225e-06
8.16468342926662e-06
8.16478028481815e-06
8.16479944751473e-06
8.16480282971722e-06
8.164803113434e-06
8.16480286889862e-06
8.1648025350549e-06
8.16480218847443e-06
8.16480183925205e-06
8.16480148562887e-06
8.16480114735696e-06
8.16480082422396e-06
8.16480051530931e-06
8.16480022085248e-06
8.16479994190936e-06
8.16479967909052e-06
8.16479943370656e-06
8.16479920809282e-06
8.16479899957209e-06
8.16479880735039e-06
8.1647986311771e-06
8.16479847044964e-06
8.16479832449662e-06
8.16479819052051e-06
8.16479805478855e-06
8.16479783945687e-06
8.16479711363554e-06
8.16479357059559e-06
8.16477536253774e-06
8.16468442000734e-06
8.16425141132612e-06
8.16230700110217e-06
8.15416548843436e-06
8.12282197883709e-06
8.01381604653345e-06
7.67868575548218e-06
6.79051850439199e-06
4.8174475547027e-06
1.68444849425991e-08
7.05370345665141e-11
6.80763969377056e-11
1.65477036956628e-08
4.77419499615911e-06
6.76080817498981e-06
7.66394210733591e-06
8.00798347283869e-06
8.120884855801e-06
8.15361012704686e-06
8.1621712903284e-06
8.16422859561082e-06
8.16468901653548e-06
8.16478589302172e-06
8.16480507547233e-06
8.16480853397455e-06
8.16480884316125e-06
8.16480861368158e-06
8.16480829476022e-06
8.16480796380874e-06
8.16480763156385e-06
8.16480729759165e-06
8.16480697716798e-06
8.16480667072962e-06
8.164806378211e-06
8.1648061000786e-06
8.16480583740715e-06
8.1648055907912e-06
8.16480536150515e-06
8.16480515201722e-06
8.16480495936536e-06
8.16480478289048e-06
8.16480462230888e-06
8.16480447698216e-06
8.16480434619764e-06
8.16480422711558e-06
8.16480410589771e-06
8.16480390453519e-06
8.16480319192295e-06
8.16479966145169e-06
8.16478146578555e-06
8.16469053549727e-06
8.16425753850833e-06
8.16231313640272e-06
8.15417161596375e-06
8.12282804151047e-06
8.01382187776967e-06
7.67869071654332e-06
6.790521815372e-06
4.8174487528698e-06
1.68444744384999e-08
7.05369063355666e-11
6.80762893598534e-11
1.6547684806563e-08
4.77419199290934e-06
6.76080603888588e-06
7.66394107468236e-06
8.0079835019674e-06
8.12088540483858e-06
8.15361091126129e-06
8.16217217035765e-06
8.16422951878045e-06
8.16468996813362e-06
8.16478686925166e-06
8.1648060707567e-06
8.16480955804069e-06
8.16480989088909e-06
8.16480968581926e-06
8.16480939056997e-06
8.16480908292132e-06
8.1648087753138e-06
8.16480846942782e-06
8.16480817398151e-06
8.16480789058059e-06
8.16480762010575e-06
8.16480736333986e-06
8.16480712143325e-06
8.1648068949872e-06
8.16480668480263e-06
8.16480649160517e-06
8.16480631472523e-06
8.16480615362984e-06
8.16480600798175e-06
8.16480587707584e-06
8.16480576014029e-06
8.1648056542833e-06
8.16480554558147e-06
8.16480535593138e-06
8.16480465408849e-06
8.16480113338979e-06
8.16478294659256e-06
8.16469202428624e-06
8.16425903409836e-06
8.16231463456119e-06
8.1541730995536e-06
8.12282944575052e-06
8.01382294283239e-06
7.67869103099287e-06
6.79052112932254e-06
4.81744751676689e-06
1.68444615106871e-08
7.05368207245874e-11
6.80761977392776e-11
1.65476648665589e-08
4.77418802780994e-06
6.7608023534704e-06
7.66393820285783e-06
8.0079813203137e-06
8.12088356971967e-06
8.15360923192425e-06
8.16217055414164e-06
8.16422793218932e-06
8.16468840317976e-06
8.16478532420413e-06
8.16480453693734e-06
8.16480797866372e-06
8.16480833283547e-06
8.16480814895761e-06
8.16480787468184e-06
8.16480758776258e-06
8.16480730161827e-06
8.16480701900596e-06
8.16480674522377e-06
8.16480648216596e-06
8.16480623123252e-06
8.16480599339055e-06
8.16480576982816e-06
8.1648055611592e-06
8.16480536807225e-06
8.16480519083412e-06
8.16480502932942e-06
8.16480488305433e-06
8.1648047515706e-06
8.16480463406481e-06
8.16480452968942e-06
8.16480443551067e-06
8.16480433754494e-06
8.1648041576852e-06
8.1648034646065e-06
8.1647999514098e-06
8.16478177064323e-06
8.16469085311744e-06
8.16425786692723e-06
8.16231346863362e-06
8.15417192054647e-06
8.12282819926608e-06
8.01382147624391e-06
7.67868931726114e-06
6.79051885381335e-06
4.81744504342095e-06
1.68444469405702e-08
7.05367471504519e-11
6.80761029599558e-11
1.65476417598849e-08
4.77418271941042e-06
6.76079674009739e-06
7.6639331213602e-06
8.0079767378025e-06
8.12087925119352e-06
8.15360502941711e-06
8.16216639828512e-06
8.16422379942527e-06
8.16468428897365e-06
8.16478122825466e-06
8.16480045481375e-06
8.16480389677719e-06
8.16480426905208e-06
8.16480410233864e-06
8.16480384556856e-06
8.1648035762627e-06
8.16480330824796e-06
8.1648030447836e-06
8.16480278951735e-06
8.16480254431554e-06
8.16480231079458e-06
8.16480209002206e-06
8.16480188320784e-06
8.16480169098681e-06
8.16480151404168e-06
8.16480135253052e-06
8.16480120648139e-06
8.16480107535277e-06
8.1648009585515e-06
8.16480085511141e-06
8.16480076412939e-06
8.164800682692e-06
8.16480059682895e-06
8.16480042857646e-06
8.16479974662012e-06
8.16479624361156e-06
8.16477807167104e-06
8.16468716246978e-06
8.16425418668385e-06
8.1623098036666e-06
8.15416827540945e-06
8.1228245650273e-06
8.01381779939044e-06
7.67868554765523e-06
6.79051494639096e-06
4.81744151633242e-06
1.68444306871036e-08
7.05366811055095e-11
6.80759925072279e-11
1.65476108566639e-08
4.77417470036779e-06
6.76078745511239e-06
7.66392395755049e-06
8.00796789812075e-06
8.12087061280879e-06
8.15359648245233e-06
8.16215788873412e-06
8.16421530937124e-06
8.16467581558292e-06
8.16477277189474e-06
8.16479201267597e-06
8.16479546628148e-06
8.16479585566971e-06
8.16479570425638e-06
8.16479546373505e-06
8.16479521097647e-06
8.16479495978834e-06
8.16479471361042e-06
8.16479447533689e-06
8.16479424674935e-06
8.1647940295477e-06
8.16479382485596e-06
8.16479363390805e-06
8.16479345738372e-06
8.16479329600678e-06
8.16479314994506e-06
8.16479301925113e-06
8.16479290327538e-06
8.16479280116733e-06
8.16479271172332e-06
8.16479263400386e-06
8.16479256520269e-06
8.16479249144829e-06
8.16479233509809e-06
8.16479166493362e-06
8.16478817281273e-06
8.16477001024983e-06
8.16467911088039e-06
8.16424615109638e-06
8.16230180012658e-06
8.15416033600826e-06
8.12281674406031e-06
8.01381017372936e-06
7.67867824807811e-06
6.79050825036448e-06
4.8174362870729e-06
1.68444111504469e-08
7.05366132333762e-11
6.80758295441905e-11
1.65475622729389e-08
4.77416067874141e-06
6.76077014156201e-06