/*--------------------------------*- C++ -*----------------------------------*\
  =========                 |
  \\      /  F ield         | OpenFOAM: The Open Source CFD Toolbox
   \\    /   O peration     | Website:  https://openfoam.org
    \\  /    A nd           | Version:  10
     \\/     M anipulation  |
\*---------------------------------------------------------------------------*/
FoamFile
{
    format      ascii;
    class       volScalarField;
    location    "1.8";
    object      h;
}
// * * * * * * * * * * * * * * * * * * * * * * * * * * * * * * * * * * * * * //

dimensions      [0 2 -2 0 0 0 0];

internalField   nonuniform List<scalar> 
2500
(
7141.27446881023
7066.49617930177
7038.61889634109
7032.11669221728
7030.73803076701
7030.44378996101
7030.38131140603
7030.36687547554
7030.36203757867
7030.36037178031
7030.3583535861
7030.35701322232
7030.35618907007
7030.35513056637
7030.35414467929
7030.35303673888
7030.35247072744
7030.35175852963
7030.35095218402
7030.35037671964
7030.34976151995
7030.34897642852
7030.34823958815
7030.34816673084
7030.34806651888
7030.34759235706
7030.3475462974
7030.34743548035
7030.34715107117
7030.34739364546
7030.34764681867
7030.34770669217
7030.34804402315
7030.34852593431
7030.34899027939
7030.34938580387
7030.34982391308
7030.35019178994
7030.35096661739
7030.35170937972
7030.35268397628
7030.35438397357
7030.35904519236
7030.37656051178
7030.45278322526
7030.77646334674
7032.19593887753
7038.70800021785
7067.00019575713
7141.26072622521
4582.50389120286
4444.59948967883
4362.43664472272
4338.72840045026
4332.54060740033
4331.00102092026
4330.64198456582
4330.56388510178
4330.54761942175
4330.54437215714
4330.54323150511
4330.54273190314
4330.54254606033
4330.54226963998
4330.54200481396
4330.54169650377
4330.54151728516
4330.54130835248
4330.54108846332
4330.54087752895
4330.54047756355
4330.5398862201
4330.53922184356
4330.53923497129
4330.53928304906
4330.53888011134
4330.53900590328
4330.53899553476
4330.53866235285
4330.53904155829
4330.53915383412
4330.53874497134
4330.53937260654
4330.54026116222
4330.54055959136
4330.54067639136
4330.54077111636
4330.54084943709
4330.54106293029
4330.54136157662
4330.54249651949
4330.54750858255
4330.57011301408
4330.66971320077
4331.08598155021
4332.72591945912
4338.95595647093
4362.45609697542
4446.08547993573
4586.17078681468
3022.02200681475
2912.078281808
2843.727271373
2822.66196169926
2817.06792654103
2815.65341534056
2815.31682136217
2815.24228269043
2815.22690594552
2815.22403523318
2815.22324327721
2815.22304783994
2815.22321127229
2815.22323057633
2815.22325441442
2815.22322770331
2815.22322430867
2815.22321599515
2815.22317704092
2815.22314416279
2815.22298093844
2815.22272199328
2815.22244300012
2815.22236499899
2815.22238894674
2815.22232912764
2815.22229296896
2815.22233636196
2815.22237682119
2815.22248505707
2815.22245477875
2815.22221840609
2815.22255204316
2815.22312904415
2815.22323792114
2815.22318399738
2815.22315314679
2815.22311733396
2815.22309692222
2815.22304163712
2815.22384090799
2815.2283170642
2815.24839438636
2815.33713702994
2815.70778774933
2817.16987339866
2822.74359755916
2843.70369500916
2913.56239430548
3029.27035353195
2288.30923809102
2228.36475264084
2196.9382689871
2186.87771598907
2184.27251581381
2183.62854900432
2183.47597585599
2183.44182950653
2183.43470250274
2183.43344442411
2183.43312392331
2183.43305402257
2183.43317844883
2183.4332400375
2183.4332971373
2183.43331975941
2183.43331482699
2183.43332503625
2183.43334598934
2183.43334847049
2183.43330988388
2183.43323216341
2183.43312205138
2183.43308559735
2183.43311274191
2183.43310806454
2183.4330783555
2183.43311256656
2183.43317612074
2183.4332030407
2183.4331833165
2183.43308576806
2183.43321744135
2183.43345794165
2183.43349550625
2183.4334522683
2183.43341569148
2183.43338978107
2183.43335857946
2183.43328132495
2183.43346502822
2183.43523404153
2183.44354753903
2183.48056607648
2183.63853073013
2184.28257013965
2186.85646703439
2196.93853434192
2229.27179357088
2294.30175491074
2000.05988835432
1974.14621417019
1962.89191516245
1959.09812441063
1958.11861617888
1957.87933254954
1957.82270527179
1957.80988144342
1957.80716941769
1957.80670754007
1957.80659491768
1957.80657460183
1957.80663427628
1957.80667235208
1957.80670593999
1957.80672207811
1957.80671993952
1957.80672639457
1957.80674418276
1957.80674917295
1957.80674188225
1957.80672240865
1957.80668203837
1957.80667641622
1957.80669443684
1957.80669479133
1957.80668146501
1957.80669599961
1957.80672726259
1957.80673582908
1957.8067287636
1957.80669655432
1957.80673919742
1957.80681724773
1957.806821807
1957.80680618555
1957.80679557539
1957.80677546292
1957.80675367092
1957.80673259739
1957.80675622122
1957.80732473863
1957.81019392625
1957.82302471704
1957.878449764
1958.10968928581
1959.06356617499
1962.86792417416
1974.53854475962
2003.42137035159
1900.89117327855
1891.35200593798
1887.89133954157
1886.65865850659
1886.33657114779
1886.25813286229
1886.23957070525
1886.23532753158
1886.23441996017
1886.23426853546
1886.23423384287
1886.23422984589
1886.23425347996
1886.23427015062
1886.23428427316
1886.23429071094
1886.23429014128
1886.23429282531
1886.23430077396
1886.23430305834
1886.23430182485
1886.23429710982
1886.23428644081
1886.23428835837
1886.23429448834
1886.23429457246
1886.23429044785
1886.23429485417
1886.23430598952
1886.2343108808
1886.23430837622
1886.23429858729
1886.23431115855
1886.23433086901
1886.23433058574
1886.23432695629
1886.23432285587
1886.23431309715
1886.23430046163
1886.23429220704
1886.23429510063
1886.23446222098
1886.23535239013
1886.23934927984
1886.25668908533
1886.33004001581
1886.63815831208
1887.87079808445
1891.4859462175
1902.38180135123
1870.0963197914
1866.97968980961
1866.01625627992
1865.65565878773
1865.55948626927
1865.53598750662
1865.53042443367
1865.52914510426
1865.52886890369
1865.52882194634
1865.52881380072
1865.52881531811
1865.52882242739
1865.52882838891
1865.52883327409
1865.52883535837
1865.52883538468
1865.52883630103
1865.52883911306
1865.52883993956
1865.52883954757
1865.52883852606
1865.52883637803
1865.52883780253
1865.5288396204
1865.528839872
1865.5288390993
1865.52883951635
1865.52884261734
1865.52884512774
1865.52884440696
1865.52884188008
1865.52884508751
1865.52884944562
1865.52884898006
1865.52884799726
1865.52884654762
1865.52884286064
1865.52883768637
1865.52883475371
1865.52883538963
1865.52888075965
1865.52913728505
1865.53029209295
1865.53529843107
1865.55662038654
1865.646914931
1866.006067461
1867.01759589451
1870.65827858083
1861.28376145893
1860.35559517208
1860.10475392474
1860.00723272053
1859.98057874674
1859.97401415245
1859.97245879305
1859.97210008671
1859.97202187048
1859.97200866379
1859.97200736751
1859.97200815315
1859.97201024647
1859.9720121127
1859.97201360417
1859.97201421498
1859.97201431516
1859.97201458667
1859.97201541266
1859.97201564498
1859.97201561277
1859.97201550891
1859.97201511953
1859.97201566887
1859.97201608713
1859.97201609428
1859.97201604568
1859.97201603363
1859.97201687083
1859.97201776684
1859.97201767797
1859.97201717049
1859.97201783007
1859.97201859103
1859.97201832532
1859.97201804852
1859.97201760372
1859.97201640601
1859.97201469934
1859.97201356815
1859.97201394856
1859.97202588719
1859.97209542596
1859.97240968998
1859.97376796145
1859.97956372924
1860.00413676375
1860.10086561843
1860.36457621147
1861.47154897165
1858.92470155667
1858.66808367005
1858.60574809125
1858.5809321173
1858.57397533418
1858.57224264679
1858.57183148316
1858.57173661234
1858.5717158398
1858.57171248208
1858.57171228466
1858.5717124824
1858.57171307323
1858.57171360403
1858.57171402078
1858.57171418915
1858.57171424565
1858.57171431913
1858.57171453316
1858.57171462437
1858.57171464187
1858.57171464371
1858.57171460584
1858.57171476727
1858.57171484404
1858.57171482405
1858.57171486635
1858.57171487894
1858.57171507611
1858.57171530325
1858.57171529729
1858.57171519765
1858.57171529604
1858.57171538832
1858.57171528771
1858.57171519771
1858.57171509233
1858.57171479165
1858.57171435879
1858.57171409827
1858.57171420041
1858.57171706182
1858.57173500497
1858.57181631246
1858.57216630408
1858.57365785968
1858.57996117215
1858.60447073474
1858.66979537799
1858.98183015785
1858.32735195292
1858.26060952623
1858.24564035248
1858.23962486578
1858.23789717567
1858.23746107717
1858.23735731983
1858.2373334011
1858.23732816383
1858.23732734315
1858.2373273122
1858.23732736811
1858.23732752427
1858.23732766374
1858.23732777219
1858.23732781623
1858.23732783826
1858.23732785749
1858.23732791564
1858.237327957
1858.23732796502
1858.23732796752
1858.23732796558
1858.2373280042
1858.23732801722
1858.23732800452
1858.23732802661
1858.23732803917
1858.23732808028
1858.23732812649
1858.23732812158
1858.23732809452
1858.23732810841
1858.23732811788
1858.23732808344
1858.23732806161
1858.23732803554
1858.23732796567
1858.23732787318
1858.23732781246
1858.23732782969
1858.2373284995
1858.23733293228
1858.23735304745
1858.23743928026
1858.23780565659
1858.2393449746
1858.24525721727
1858.26082289784
1858.3434668716
1858.18304716558
1858.16655585368
1858.16305769473
1858.16165626723
1858.16124487963
1858.16113950615
1858.16111433652
1858.16110854224
1858.16110727552
1858.16110707904
1858.16110707374
1858.16110708859
1858.16110712678
1858.16110716072
1858.16110718694
1858.16110719762
1858.16110720444
1858.16110720909
1858.16110722219
1858.16110723497
1858.16110723987
1858.1611072431
1858.16110724349
1858.16110724976
1858.16110725147
1858.1611072475
1858.161107254
1858.16110725917
1858.16110726692
1858.16110727382
1858.16110727195
1858.16110726506
1858.16110726595
1858.16110726662
1858.16110725687
1858.16110725266
1858.16110724672
1858.16110723182
1858.16110721284
1858.16110719854
1858.16110720185
1858.16110735657
1858.16110841016
1858.16111318994
1858.16113360241
1858.16121998528
1858.16158038741
1858.16294926648
1858.1665442414
1858.1873182635
1858.14956563601
1858.14566495156
1858.14486636264
1858.14455050478
1858.14445602952
1858.14443145997
1858.1444255593
1858.1444242018
1858.14442390533
1858.14442385721
1858.14442385446
1858.14442385818
1858.14442386644
1858.14442387366
1858.14442387917
1858.14442388119
1858.1444238831
1858.14442388332
1858.14442388509
1858.1444238886
1858.14442389
1858.14442389099
1858.1444238914
1858.14442389229
1858.14442389217
1858.14442389077
1858.14442389228
1858.14442389361
1858.14442389498
1858.14442389586
1858.14442389532
1858.14442389352
1858.14442389371
1858.14442389359
1858.14442389071
1858.1444238905
1858.1444238895
1858.14442388687
1858.14442388372
1858.14442388099
1858.14442388209
1858.14442391828
1858.14442416135
1858.14442525703
1858.14442991737
1858.14444955164
1858.14453087688
1858.14483690703
1858.14564546423
1858.15063986554
1858.14206447344
1858.14117599202
1858.14099745587
1858.14092821684
1858.14090719035
1858.14090163854
1858.14090029521
1858.1408999851
1858.14089991655
1858.1408999041
1858.14089990202
1858.1408999017
1858.14089990259
1858.14089990335
1858.14089990383
1858.14089990373
1858.14089990369
1858.14089990304
1858.14089990283
1858.14089990325
1858.14089990332
1858.1408999033
1858.14089990313
1858.14089990304
1858.14089990272
1858.14089990218
1858.14089990237
1858.14089990259
1858.14089990279
1858.14089990289
1858.14089990279
1858.14089990237
1858.14089990256
1858.1408999027
1858.14089990226
1858.14089990272
1858.14089990303
1858.140899903
1858.14089990297
1858.14089990317
1858.14089990453
1858.14089991397
1858.14089996912
1858.14090021313
1858.14090124373
1858.14090556236
1858.14092332634
1858.14098971261
1858.14116742325
1858.14232283107
1858.14043464877
1858.14023883965
1858.14019960101
1858.14018474926
1858.14018019185
1858.14017897066
1858.14017867153
1858.14017860105
1858.14017858426
1858.14017857998
1858.14017857817
1858.14017857692
1858.14017857606
1858.14017857529
1858.14017857457
1858.14017857383
1858.14017857317
1858.14017857242
1858.14017857182
1858.14017857143
1858.14017857104
1858.14017857067
1858.14017857032
1858.14017857001
1858.1401785697
1858.14017856939
1858.14017856927
1858.14017856921
1858.14017856918
1858.14017856919
1858.14017856921
1858.14017856921
1858.14017856942
1858.1401785697
1858.14017856993
1858.14017857045
1858.14017857101
1858.14017857161
1858.14017857234
1858.14017857327
1858.14017857465
1858.14017857798
1858.14017859129
1858.14017864532
1858.14017886787
1858.14017979135
1858.14018356569
1858.14019762304
1858.14023597342
1858.14049442162
1858.14008998143
1858.14004807802
1858.14003948258
1858.14003632089
1858.14003535062
1858.14003508701
1858.14003502048
1858.14003500339
1858.14003499807
1858.14003499562
1858.14003499388
1858.14003499241
1858.14003499114
1858.14003499001
1858.14003498899
1858.14003498805
1858.14003498721
1858.14003498642
1858.14003498572
1858.14003498513
1858.1400349846
1858.14003498412
1858.1400349837
1858.14003498334
1858.14003498302
1858.14003498275
1858.14003498256
1858.14003498244
1858.14003498238
1858.14003498238
1858.14003498243
1858.14003498255
1858.14003498278
1858.14003498309
1858.14003498348
1858.14003498402
1858.14003498466
1858.14003498542
1858.14003498634
1858.14003498745
1858.14003498882
1858.14003499079
1858.14003499503
1858.14003500797
1858.14003505615
1858.14003525008
1858.14003603811
1858.14003898828
1858.14004723633
1858.14010334353
1858.14001882606
1858.14001010497
1858.14000811563
1858.14000741068
1858.14000720201
1858.14000714472
1858.14000712878
1858.14000712333
1858.14000712052
1858.14000711849
1858.14000711676
1858.14000711522
1858.14000711385
1858.14000711261
1858.1400071115
1858.1400071105
1858.14000710959
1858.14000710877
1858.14000710804
1858.14000710739
1858.1400071068
1858.14000710629
1858.14000710584
1858.14000710545
1858.14000710512
1858.14000710485
1858.14000710465
1858.14000710451
1858.14000710444
1858.14000710444
1858.14000710451
1858.14000710465
1858.14000710489
1858.14000710522
1858.14000710565
1858.14000710621
1858.14000710688
1858.14000710769
1858.14000710866
1858.14000710981
1858.14000711117
1858.14000711283
1858.14000711513
1858.14000711938
1858.14000713092
1858.14000717235
1858.14000734012
1858.14000799165
1858.14000987187
1858.14002171761
1858.14000444899
1858.14000269423
1858.14000210174
1858.140001903
1858.14000185251
1858.14000183873
1858.14000183361
1858.1400018307
1858.14000182846
1858.14000182653
1858.1400018248
1858.14000182323
1858.14000182183
1858.14000182055
1858.1400018194
1858.14000181836
1858.14000181742
1858.14000181658
1858.14000181582
1858.14000181513
1858.14000181453
1858.14000181399
1858.14000181352
1858.14000181312
1858.14000181278
1858.1400018125
1858.14000181229
1858.14000181215
1858.14000181208
1858.14000181207
1858.14000181215
1858.1400018123
1858.14000181255
1858.14000181289
1858.14000181334
1858.14000181391
1858.1400018146
1858.14000181543
1858.14000181642
1858.14000181758
1858.14000181893
1858.1400018205
1858.14000182236
1858.14000182477
1858.14000182871
1858.14000183897
1858.14000188092
1858.14000206734
1858.14000262639
1858.14000505016
1858.1400015995
1858.14000127308
1858.1400009707
1858.14000087457
1858.1400008564
1858.1400008517
1858.14000084892
1858.1400008466
1858.14000084451
1858.14000084261
1858.14000084088
1858.14000083931
1858.14000083788
1858.14000083658
1858.14000083541
1858.14000083434
1858.14000083338
1858.14000083251
1858.14000083173
1858.14000083103
1858.1400008304
1858.14000082985
1858.14000082937
1858.14000082895
1858.1400008286
1858.14000082832
1858.1400008281
1858.14000082796
1858.14000082788
1858.14000082788
1858.14000082796
1858.14000082812
1858.14000082837
1858.14000082872
1858.14000082918
1858.14000082976
1858.14000083046
1858.14000083131
1858.1400008323
1858.14000083346
1858.1400008348
1858.14000083633
1858.14000083806
1858.14000084004
1858.14000084237
1858.14000084629
1858.14000086316
1858.1400009572
1858.14000124687
1858.140001713
1858.14000104423
1858.14000100461
1858.14000076162
1858.14000068608
1858.14000067451
1858.14000067176
1858.14000066954
1858.14000066739
1858.14000066537
1858.1400006635
1858.14000066177
1858.14000066019
1858.14000065875
1858.14000065743
1858.14000065624
1858.14000065515
1858.14000065417
1858.14000065328
1858.14000065248
1858.14000065177
1858.14000065113
1858.14000065056
1858.14000065007
1858.14000064964
1858.14000064928
1858.140000649
1858.14000064878
1858.14000064863
1858.14000064855
1858.14000064855
1858.14000064863
1858.1400006488
1858.14000064906
1858.14000064941
1858.14000064988
1858.14000065047
1858.14000065118
1858.14000065203
1858.14000065303
1858.14000065418
1858.14000065551
1858.14000065701
1858.14000065868
1858.1400006605
1858.14000066243
1858.14000066501
1858.14000067685
1858.14000075274
1858.14000098816
1858.14000105624
1858.14000093748
1858.14000095441
1858.14000072354
1858.1400006522
1858.14000064205
1858.14000063978
1858.14000063775
1858.14000063568
1858.14000063371
1858.14000063185
1858.14000063013
1858.14000062855
1858.1400006271
1858.14000062577
1858.14000062456
1858.14000062345
1858.14000062246
1858.14000062155
1858.14000062074
1858.14000062001
1858.14000061936
1858.14000061878
1858.14000061828
1858.14000061784
1858.14000061748
1858.14000061719
1858.14000061696
1858.14000061681
1858.14000061673
1858.14000061673
1858.14000061682
1858.14000061699
1858.14000061725
1858.14000061762
1858.14000061809
1858.14000061868
1858.1400006194
1858.14000062025
1858.14000062125
1858.14000062241
1858.14000062372
1858.14000062519
1858.14000062682
1858.14000062856
1858.14000063033
1858.14000063254
1858.14000064331
1858.14000071556
1858.14000094003
1858.14000092868
1858.14000091703
1858.14000094498
1858.14000071669
1858.14000064627
1858.14000063649
1858.14000063441
1858.14000063247
1858.14000063046
1858.14000062852
1858.14000062668
1858.14000062497
1858.14000062338
1858.14000062192
1858.14000062058
1858.14000061936
1858.14000061825
1858.14000061724
1858.14000061632
1858.14000061549
1858.14000061475
1858.14000061409
1858.14000061351
1858.140000613
1858.14000061256
1858.14000061219
1858.14000061189
1858.14000061167
1858.14000061151
1858.14000061143
1858.14000061144
1858.14000061152
1858.14000061169
1858.14000061196
1858.14000061233
1858.14000061281
1858.14000061341
1858.14000061413
1858.14000061499
1858.14000061599
1858.14000061714
1858.14000061844
1858.14000061989
1858.14000062147
1858.14000062315
1858.14000062483
1858.14000062689
1858.14000063735
1858.14000070879
1858.14000093092
1858.14000090395
1858.14000091298
1858.14000094309
1858.14000071544
1858.14000064529
1858.14000063567
1858.14000063367
1858.1400006318
1858.14000062984
1858.14000062793
1858.14000062611
1858.1400006244
1858.14000062282
1858.14000062135
1858.14000062
1858.14000061877
1858.14000061765
1858.14000061663
1858.1400006157
1858.14000061487
1858.14000061412
1858.14000061345
1858.14000061286
1858.14000061234
1858.1400006119
1858.14000061153
1858.14000061123
1858.140000611
1858.14000061084
1858.14000061077
1858.14000061077
1858.14000061086
1858.14000061103
1858.1400006113
1858.14000061168
1858.14000061216
1858.14000061276
1858.14000061349
1858.14000061435
1858.14000061535
1858.14000061649
1858.14000061778
1858.14000061921
1858.14000062076
1858.14000062239
1858.14000062401
1858.14000062598
1858.14000063629
1858.14000070748
1858.140000929
1858.14000089897
1858.14000091205
1858.14000094261
1858.14000071518
1858.14000064515
1858.14000063561
1858.14000063368
1858.14000063186
1858.14000062993
1858.14000062804
1858.14000062623
1858.14000062453
1858.14000062295
1858.14000062148
1858.14000062013
1858.14000061889
1858.14000061776
1858.14000061673
1858.1400006158
1858.14000061496
1858.1400006142
1858.14000061353
1858.14000061294
1858.14000061242
1858.14000061197
1858.1400006116
1858.14000061129
1858.14000061106
1858.14000061091
1858.14000061083
1858.14000061083
1858.14000061092
1858.1400006111
1858.14000061138
1858.14000061175
1858.14000061224
1858.14000061285
1858.14000061358
1858.14000061444
1858.14000061544
1858.14000061658
1858.14000061786
1858.14000061927
1858.14000062079
1858.14000062239
1858.14000062396
1858.14000062586
1858.1400006361
1858.14000070716
1858.14000092845
1858.1400008978
1858.14000091173
1858.14000094239
1858.14000071508
1858.14000064512
1858.14000063563
1858.14000063375
1858.14000063195
1858.14000063005
1858.14000062817
1858.14000062638
1858.14000062468
1858.1400006231
1858.14000062163
1858.14000062027
1858.14000061903
1858.1400006179
1858.14000061687
1858.14000061593
1858.14000061509
1858.14000061433
1858.14000061365
1858.14000061306
1858.14000061254
1858.14000061209
1858.14000061171
1858.14000061141
1858.14000061118
1858.14000061103
1858.14000061095
1858.14000061095
1858.14000061104
1858.14000061122
1858.1400006115
1858.14000061188
1858.14000061237
1858.14000061298
1858.14000061371
1858.14000061457
1858.14000061557
1858.14000061671
1858.14000061798
1858.14000061938
1858.14000062089
1858.14000062246
1858.140000624
1858.14000062586
1858.14000063604
1858.14000070704
1858.1400009282
1858.14000089742
1858.14000091156
1858.14000094224
1858.140000715
1858.14000064508
1858.14000063562
1858.14000063375
1858.14000063198
1858.14000063008
1858.14000062821
1858.14000062642
1858.14000062473
1858.14000062315
1858.14000062168
1858.14000062032
1858.14000061908
1858.14000061795
1858.14000061691
1858.14000061598
1858.14000061513
1858.14000061437
1858.1400006137
1858.1400006131
1858.14000061258
1858.14000061213
1858.14000061176
1858.14000061146
1858.14000061123
1858.14000061107
1858.140000611
1858.14000061101
1858.1400006111
1858.14000061128
1858.14000061156
1858.14000061194
1858.14000061243
1858.14000061304
1858.14000061377
1858.14000061464
1858.14000061564
1858.14000061677
1858.14000061804
1858.14000061944
1858.14000062094
1858.1400006225
1858.14000062401
1858.14000062585
1858.14000063601
1858.14000070698
1858.14000092808
1858.14000089726
1858.14000091145
1858.14000094213
1858.14000071492
1858.140000645
1858.14000063554
1858.14000063368
1858.1400006319
1858.14000063001
1858.14000062814
1858.14000062635
1858.14000062466
1858.14000062308
1858.14000062161
1858.14000062026
1858.14000061902
1858.14000061788
1858.14000061685
1858.14000061592
1858.14000061508
1858.14000061432
1858.14000061365
1858.14000061305
1858.14000061253
1858.14000061209
1858.14000061171
1858.14000061141
1858.14000061119
1858.14000061104
1858.14000061096
1858.14000061097
1858.14000061106
1858.14000061125
1858.14000061153
1858.14000061191
1858.1400006124
1858.14000061301
1858.14000061374
1858.14000061461
1858.14000061561
1858.14000061675
1858.14000061802
1858.14000061941
1858.14000062091
1858.14000062247
1858.14000062398
1858.14000062582
1858.14000063598
1858.14000070694
1858.14000092803
1858.14000089722
1858.14000091138
1858.14000094203
1858.14000071482
1858.14000064489
1858.14000063541
1858.14000063352
1858.14000063173
1858.14000062983
1858.14000062795
1858.14000062616
1858.14000062447
1858.14000062288
1858.14000062142
1858.14000062007
1858.14000061884
1858.14000061771
1858.14000061668
1858.14000061575
1858.14000061492
1858.14000061416
1858.14000061349
1858.1400006129
1858.14000061239
1858.14000061195
1858.14000061158
1858.14000061128
1858.14000061106
1858.14000061091
1858.14000061084
1858.14000061084
1858.14000061094
1858.14000061112
1858.1400006114
1858.14000061179
1858.14000061228
1858.14000061289
1858.14000061362
1858.14000061449
1858.14000061549
1858.14000061663
1858.1400006179
1858.1400006193
1858.14000062081
1858.14000062238
1858.14000062391
1858.14000062577
1858.14000063595
1858.14000070694
1858.14000092807
1858.14000089727
1858.14000091135
1858.14000094196
1858.14000071471
1858.14000064474
1858.14000063521
1858.14000063328
1858.14000063146
1858.14000062954
1858.14000062765
1858.14000062585
1858.14000062415
1858.14000062257
1858.14000062111
1858.14000061977
1858.14000061854
1858.14000061742
1858.1400006164
1858.14000061548
1858.14000061465
1858.1400006139
1858.14000061324
1858.14000061266
1858.14000061215
1858.14000061171
1858.14000061134
1858.14000061105
1858.14000061083
1858.14000061069
1858.14000061062
1858.14000061063
1858.14000061072
1858.14000061091
1858.14000061119
1858.14000061157
1858.14000061206
1858.14000061267
1858.14000061341
1858.14000061427
1858.14000061527
1858.14000061641
1858.14000061769
1858.1400006191
1858.14000062063
1858.14000062222
1858.14000062378
1858.14000062568
1858.14000063591
1858.14000070696
1858.14000092818
1858.14000089741
1858.14000091138
1858.14000094192
1858.14000071459
1858.14000064454
1858.14000063494
1858.14000063296
1858.14000063109
1858.14000062914
1858.14000062723
1858.14000062541
1858.14000062371
1858.14000062213
1858.14000062068
1858.14000061934
1858.14000061812
1858.14000061701
1858.14000061601
1858.14000061509
1858.14000061427
1858.14000061354
1858.14000061289
1858.14000061231
1858.14000061181
1858.14000061138
1858.14000061102
1858.14000061073
1858.14000061052
1858.14000061037
1858.14000061031
1858.14000061032
1858.14000061042
1858.1400006106
1858.14000061088
1858.14000061126
1858.14000061175
1858.14000061236
1858.14000061309
1858.14000061396
1858.14000061496
1858.14000061611
1858.1400006174
1858.14000061882
1858.14000062037
1858.140000622
1858.14000062361
1858.14000062557
1858.14000063588
1858.14000070701
1858.14000092837
1858.14000089766
1858.14000091147
1858.14000094193
1858.14000071447
1858.14000064432
1858.14000063462
1858.14000063255
1858.14000063062
1858.14000062862
1858.14000062668
1858.14000062486
1858.14000062315
1858.14000062158
1858.14000062013
1858.1400006188
1858.14000061759
1858.1400006165
1858.1400006155
1858.14000061461
1858.1400006138
1858.14000061308
1858.14000061243
1858.14000061187
1858.14000061137
1858.14000061095
1858.1400006106
1858.14000061032
1858.14000061011
1858.14000060997
1858.14000060991
1858.14000060992
1858.14000061002
1858.14000061021
1858.14000061048
1858.14000061086
1858.14000061135
1858.14000061196
1858.14000061269
1858.14000061355
1858.14000061455
1858.1400006157
1858.14000061701
1858.14000061845
1858.14000062003
1858.14000062171
1858.14000062339
1858.14000062543
1858.14000063584
1858.1400007071
1858.14000092867
1858.14000089803
1858.14000091166
1858.140000942
1858.14000071435
1858.14000064405
1858.14000063422
1858.14000063205
1858.14000063005
1858.140000628
1858.14000062602
1858.14000062418
1858.14000062247
1858.1400006209
1858.14000061946
1858.14000061814
1858.14000061695
1858.14000061587
1858.14000061489
1858.14000061401
1858.14000061322
1858.14000061251
1858.14000061188
1858.14000061133
1858.14000061085
1858.14000061044
1858.14000061009
1858.14000060982
1858.14000060962
1858.14000060948
1858.14000060942
1858.14000060944
1858.14000060954
1858.14000060972
1858.14000061
1858.14000061037
1858.14000061086
1858.14000061146
1858.14000061219
1858.14000061305
1858.14000061405
1858.14000061521
1858.14000061652
1858.14000061799
1858.14000061962
1858.14000062135
1858.14000062311
1858.14000062526
1858.1400006358
1858.14000070722
1858.14000092906
1858.14000089853
1858.14000091195
1858.14000094214
1858.14000071424
1858.14000064376
1858.14000063377
1858.14000063147
1858.14000062937
1858.14000062725
1858.14000062524
1858.14000062338
1858.14000062166
1858.1400006201
1858.14000061867
1858.14000061737
1858.1400006162
1858.14000061514
1858.14000061418
1858.14000061332
1858.14000061254
1858.14000061185
1858.14000061124
1858.1400006107
1858.14000061023
1858.14000060983
1858.1400006095
1858.14000060923
1858.14000060904
1858.14000060891
1858.14000060885
1858.14000060887
1858.14000060897
1858.14000060915
1858.14000060943
1858.1400006098
1858.14000061028
1858.14000061087
1858.14000061159
1858.14000061245
1858.14000061346
1858.14000061462
1858.14000061595
1858.14000061744
1858.14000061911
1858.14000062091
1858.14000062277
1858.14000062505
1858.14000063576
1858.1400007074
1858.14000092959
1858.14000089918
1858.14000091238
1858.14000094239
1858.14000071415
1858.14000064343
1858.14000063324
1858.14000063079
1858.14000062858
1858.14000062639
1858.14000062434
1858.14000062246
1858.14000062074
1858.14000061918
1858.14000061777
1858.14000061649
1858.14000061534
1858.1400006143
1858.14000061336
1858.14000061252
1858.14000061177
1858.1400006111
1858.1400006105
1858.14000060998
1858.14000060953
1858.14000060914
1858.14000060882
1858.14000060856
1858.14000060837
1858.14000060825
1858.1400006082
1858.14000060822
1858.14000060832
1858.1400006085
1858.14000060877
1858.14000060914
1858.14000060961
1858.1400006102
1858.14000061091
1858.14000061176
1858.14000061277
1858.14000061393
1858.14000061527
1858.1400006168
1858.14000061851
1858.1400006204
1858.14000062236
1858.1400006248
1858.14000063571
1858.14000070763
1858.14000093027
1858.14000090002
1858.14000091299
1858.14000094277
1858.14000071409
1858.14000064306
1858.14000063263
1858.14000063
1858.14000062767
1858.14000062541
1858.14000062331
1858.14000062141
1858.14000061969
1858.14000061814
1858.14000061675
1858.1400006155
1858.14000061437
1858.14000061336
1858.14000061245
1858.14000061163
1858.1400006109
1858.14000061026
1858.14000060968
1858.14000060917
1858.14000060874
1858.14000060836
1858.14000060806
1858.14000060781
1858.14000060763
1858.14000060751
1858.14000060746
1858.14000060749
1858.14000060758
1858.14000060776
1858.14000060803
1858.14000060839
1858.14000060885
1858.14000060943
1858.14000061014
1858.14000061098
1858.14000061198
1858.14000061315
1858.1400006145
1858.14000061606
1858.14000061782
1858.14000061979
1858.14000062189
1858.14000062451
1858.14000063567
1858.14000070792
1858.14000093112
1858.14000090108
1858.14000091384
1858.14000094333
1858.14000071407
1858.14000064266
1858.14000063194
1858.14000062911
1858.14000062664
1858.1400006243
1858.14000062216
1858.14000062024
1858.14000061853
1858.14000061699
1858.14000061562
1858.1400006144
1858.1400006133
1858.14000061232
1858.14000061144
1858.14000061065
1858.14000060995
1858.14000060932
1858.14000060877
1858.14000060828
1858.14000060786
1858.14000060751
1858.14000060721
1858.14000060698
1858.1400006068
1858.14000060669
1858.14000060665
1858.14000060667
1858.14000060677
1858.14000060695
1858.14000060721
1858.14000060756
1858.14000060802
1858.14000060858