/*--------------------------------*- C++ -*----------------------------------*\
  =========                 |
  \\      /  F ield         | OpenFOAM: The Open Source CFD Toolbox
   \\    /   O peration     | Website:  https://openfoam.org
    \\  /    A nd           | Version:  10
     \\/     M anipulation  |
\*---------------------------------------------------------------------------*/
FoamFile
{
    format      ascii;
    class       volScalarField;
    location    "1.8";
    object      k;
}
// * * * * * * * * * * * * * * * * * * * * * * * * * * * * * * * * * * * * * //

dimensions      [0 2 -2 0 0 0 0];

internalField   nonuniform List<scalar> 
2500
(
2.18632273513643e-08
1.57352980127604e-07
5.1866450732145e-07
7.31239364184956e-07
8.21312248529453e-07
8.52098885001848e-07
8.61032526522473e-07
8.63309633194599e-07
8.63832093545914e-07
8.6394182525981e-07
8.63962917792787e-07
8.63966262042345e-07
8.6396630005116e-07
8.63965926300676e-07
8.63965514012913e-07
8.63965137456082e-07
8.63964820439714e-07
8.6396455193967e-07
8.63964317842946e-07
8.6396410935603e-07
8.63963922416851e-07
8.6396375467367e-07
8.63963605332129e-07
8.6396347415685e-07
8.63963360578655e-07
8.63963264236167e-07
8.63963185784574e-07
8.63963125826598e-07
8.6396308732924e-07
8.63963080322361e-07
8.63963103430071e-07
8.63963155107051e-07
8.63963220335388e-07
8.6396328761713e-07
8.63963399168735e-07
8.63963536958865e-07
8.63963687135129e-07
8.63963692371055e-07
8.63962456955317e-07
8.63954525993995e-07
8.63915717426789e-07
8.63742051966611e-07
8.63015204371843e-07
8.60194747101585e-07
8.50191306254064e-07
8.18397486076476e-07
7.30334429173852e-07
5.26464651662778e-07
1.6578690739335e-07
2.33527971375857e-08
2.19892595849302e-07
3.76378252217257e-06
1.39380292749989e-05
2.01582022567629e-05
2.29121741027101e-05
2.38911191627519e-05
2.41848923820445e-05
2.4261939491901e-05
2.42800524754074e-05
2.42839378379516e-05
2.42847020016006e-05
2.42848307387135e-05
2.42848372535635e-05
2.42848275150701e-05
2.42848162275197e-05
2.4284805789132e-05
2.42847968367822e-05
2.42847891835271e-05
2.42847824945056e-05
2.42847765410824e-05
2.4284771205992e-05
2.42847664251084e-05
2.42847621682612e-05
2.42847584151074e-05
2.42847551599823e-05
2.42847524035194e-05
2.4284750150946e-05
2.4284748425998e-05
2.42847473266573e-05
2.42847471055652e-05
2.42847476443806e-05
2.42847488868962e-05
2.42847506838657e-05
2.42847526784376e-05
2.42847556945226e-05
2.42847593860953e-05
2.42847631459487e-05
2.42847610752598e-05
2.42847133295443e-05
2.42844284591309e-05
2.42830707222365e-05
2.42770881069442e-05
2.42524734453312e-05
2.41588406270731e-05
2.38344325179997e-05
2.28316867532981e-05
2.0145179080847e-05
1.41649178825499e-05
3.98357347712349e-06
2.48397391523475e-07
6.37336956745323e-07
1.54938608250279e-05
6.49354057973782e-05
9.39010700234673e-05
0.000106924805854867
0.000111682671593278
0.00011315330846539
0.000113550121215097
0.000113645895372226
0.000113666948278522
0.000113671198285365
0.000113671953535727
0.000113672021054575
0.000113671985629019
0.000113671940018057
0.000113671896961757
0.000113671859559115
0.000113671827352314
0.000113671799116873
0.000113671773938283
0.000113671751322983
0.000113671731004367
0.000113671712857413
0.00011367169680111
0.000113671682811304
0.00011367167088174
0.000113671661038687
0.00011367165338154
0.000113671648325658
0.000113671646710294
0.000113671648002137
0.000113671652375812
0.000113671659164545
0.000113671667204669
0.000113671678565928
0.000113671692595486
0.000113671705260295
0.000113671683605732
0.000113671414313579
0.000113669907252862
0.000113662851327231
0.000113632098505151
0.000113507103937244
0.000113038372219203
0.000111441320765787
0.000106597389018898
9.38642772096925e-05
6.58601260664115e-05
1.62644489424507e-05
7.03686328886147e-07
1.02132879115774e-06
2.5887415443329e-05
0.000107646335063662
0.000154202067708563
0.00017507730487465
0.000182759558373143
0.000185162960156813
0.000185820767599407
0.000185981983063656
0.000186017992557639
0.000186025393401674
0.000186026753287605
0.000186026911877474
0.000186026865286734
0.000186026802551021
0.000186026742141107
0.000186026689199601
0.000186026643330576
0.000186026602942523
0.00018602656679725
0.000186026534212
0.000186026504820958
0.000186026478449397
0.000186026454988342
0.000186026434401738
0.000186026416671879
0.000186026401831854
0.000186026390016042
0.000186026382000677
0.000186026378198434
0.000186026377804944
0.000186026382994501
0.000186026390770556
0.000186026400749873
0.000186026414543092
0.000186026432485835
0.00018602644726004
0.000186026407330957
0.000186025979178315
0.000186023637724895
0.000186012619746644
0.000185964237919029
0.000185766176888112
0.000185018753212785
0.000182459181726536
0.000174665965692563
0.000154107334493362
0.000108621560236331
2.67289051119557e-05
1.09300807657412e-06
1.31810459156665e-06
3.41085515427709e-05
0.000140952188976906
0.000200699832797878
0.000227490906231683
0.000237417401471027
0.000240555221494004
0.000241424684071227
0.000241640673541471
0.000241689621692886
0.000241699845866614
0.000241701780000823
0.000241702045530649
0.000241702010645853
0.000241701944656529
0.000241701878910808
0.000241701820542437
0.000241701769505155
0.00024170172425152
0.00024170168351394
0.000241701646583333
0.000241701613078867
0.000241701582818407
0.000241701555690602
0.000241701531658477
0.000241701510700229
0.000241701492847765
0.000241701478212288
0.000241701467438364
0.000241701460954728
0.000241701459034336
0.000241701461430488
0.000241701467742986
0.000241701476732194
0.000241701489398723
0.000241701505972544
0.000241701518622893
0.000241701457669754
0.000241700909297592
0.000241697990866145
0.00024168419782802
0.000241623219234345
0.000241371952502391
0.000240418214420321
0.000237136763844945
0.000227112124940096
0.000200604698281705
0.000141790818846245
3.48555271674025e-05
1.38467390858541e-06
1.52611150178117e-06
4.00569423715724e-05
0.000165166202567044
0.000234367778854219
0.000265448464141425
0.00027703649660467
0.000280732247384905
0.000281767158696627
0.000282027271534944
0.000282086972883692
0.000282099622745608
0.000282102076034354
0.000282102453206557
0.000282102442166967
0.000282102382287832
0.00028210231938953
0.00028210226252214
0.000282102212168289
0.000282102167083996
0.00028210212616915
0.000282102088800125
0.000282102054640343
0.000282102023534006
0.000282101995386205
0.000282101970169383
0.000282101947865049
0.000282101928503637
0.000282101912158541
0.000282101899189221
0.0002821018906722
0.000282101885681685
0.000282101884632533
0.000282101888111767
0.00028210189434718
0.000282101903770788
0.000282101915672648
0.000282101921503191
0.000282101835360986
0.000282101200484315
0.000282097892253757
0.00028208220285673
0.000282012479399981
0.000281723717781096
0.000280622733019866
0.000276821356648335
0.000265181947009373
0.00023436863207338
0.000165928615587203
4.07130421641083e-05
1.58747574700637e-06
1.66143828076301e-06
4.40535994701109e-05
0.000181700979651603
0.000257380544008859
0.000291449227077434
0.000304220919403492
0.000308324564259168
0.000309483849931405
0.000309778105900032
0.000309846379728704
0.000309861026861657
0.000309863926454587
0.000309864407135085
0.000309864424258241
0.000309864375237829
0.000309864319545452
0.000309864267952834
0.000309864221533924
0.000309864179457559
0.00030986414088393
0.000309864105331444
0.000309864072539423
0.000309864042396758
0.000309864014835452
0.000309863989844059
0.00030986396741191
0.000309863947569617
0.000309863930365061
0.00030986391599601
0.000309863905173515
0.000309863897181481
0.000309863893332668
0.000309863893387852
0.000309863896237063
0.000309863901327999
0.000309863907543231
0.000309863903737062
0.000309863794639573
0.000309863100084557
0.00030985953671264
0.0003098425983657
0.000309767042229225
0.000309452951762707
0.000308251446691264
0.000304092618451193
0.000291339843736113
0.000257561556695587
0.00018251661497491
4.4677105452655e-05
1.72038118897489e-06
1.74420723122357e-06
4.65741305130088e-05
0.000192370951623959
0.00027229787982803
0.000308364852444427
0.000321947171839117
0.000326337562027191
0.000327586720299966
0.000327906354314511
0.00032798118594536
0.000327997408668316
0.000328000672074965
0.000328001242463001
0.000328001288173321
0.00032800125090845
0.000328001203806296
0.000328001158811788
0.00032800111755374
0.000328001079612566
0.000328001044421407
0.000328001011653048
0.000328000981130943
0.000328000952793553
0.000328000926602783
0.00032800090256552
0.000328000880680413
0.000328000860979382
0.000328000843494218
0.000328000828332393
0.000328000815790075
0.000328000805853072
0.000328000799124735
0.000328000795638943
0.000328000794584075
0.00032800079597253
0.000328000797352605
0.00032800078354835
0.000328000655794558
0.000327999923119389
0.000327996197950462
0.000327978470445125
0.000327899192149282
0.000327568758046261
0.000326301800056783
0.000321908845024255
0.000308425254751906
0.000272703499173649
0.000193342918687816
4.72181677140689e-05
1.80320282655771e-06
1.79223311828695e-06
4.80790036646576e-05
0.000198913668570663
0.000281509180569626
0.000318859957077819
0.000332976133614853
0.00033756042174223
0.000338872036280921
0.000339209803094439
0.00033928945362373
0.000339306868347283
0.000339310414585216
0.000339311059528537
0.000339311131548374
0.000339311103412975
0.000339311064358929
0.000339311025727536
0.000339310989559228
0.000339310955778969
0.000339310924057789
0.00033931089420687
0.000339310866126614
0.000339310839800773
0.000339310815218885
0.000339310792404647
0.00033931077136581
0.000339310752135925
0.00033931073473747
0.000339310719236446
0.00033931070576365
0.000339310694413571
0.00033931068547698
0.000339310679035508
0.000339310674719135
0.000339310672310346
0.000339310668571601
0.000339310646557894
0.000339310507806467
0.000339309750710294
0.000339305926676971
0.000339287721395415
0.000339206172295001
0.000338865669129367
0.000337558058511735
0.000333018919359875
0.00031907806951185
0.000282141254799624
0.000200087823976332
4.8772036601873e-05
1.85260640741456e-06
1.818860349186e-06
4.89356455623813e-05
0.000202745545544636
0.000286951140148235
0.000325095389883912
0.00033955006962129
0.000344260622220913
0.000345614029961747
0.000345964267830748
0.000346047324990636
0.000346065606250338
0.000346069363003943
0.00034607006514794
0.000346070157341709
0.000346070138913801
0.000346070106603892
0.00034607007333847
0.000346070041528605
0.000346070011362659
0.000346069982695866
0.000346069955449127
0.000346069929584963
0.000346069905123652
0.000346069882077318
0.000346069860483276
0.000346069840356865
0.000346069821733121
0.000346069804628834
0.000346069789089019
0.00034606977517331
0.000346069762961669
0.000346069752594688
0.000346069744142354
0.000346069737416209
0.000346069731936049
0.000346069724519036
0.000346069697305659
0.000346069551237619
0.000346068778549048
0.000346064896317391
0.000346046413744988
0.000345963538877015
0.000345617104615995
0.000344285367545069
0.00033965903193285
0.000325444774470065
0.0002877812668855
0.000204117915859978
4.9683782052373e-05
1.88096665018977e-06
1.83305014521939e-06
4.94033634629069e-05
0.000204899256586518
0.000290040165215598
0.000328657196681565
0.000343318906163455
0.000348108777933199
0.000349489161112877
0.000349847669668577
0.0003499330479119
0.000349951935764803
0.00034995584361104
0.000349956587163308
0.000349956694955144
0.000349956684358004
0.000349956657247705
0.00034995662814792
0.000349956599772556
0.000349956572496095
0.000349956546304025
0.000349956521196425
0.000349956497181466
0.000349956474306109
0.000349956452599185
0.000349956432108062
0.000349956412853612
0.00034995639487204
0.000349956378176565
0.000349956362800636
0.000349956348771211
0.000349956336140972
0.000349956324975378
0.000349956315319974
0.000349956307055686
0.000349956299639634
0.000349956289814757
0.0003499562592543
0.000349956108423084
0.000349955326272354
0.00034995141107466
0.000349932774001796
0.000349849156867387
0.000349499374164055
0.00034815391758531
0.000343477742977125
0.000329106746042852
0.000291026045854734
0.000206437207305868
5.01996185234849e-05
1.89670364889371e-06
1.84035394187065e-06
4.96495411592407e-05
0.00020606597990203
0.00029173152417608
0.000330620791554773
0.000345404906993503
0.00035024294955093
0.000351640161913881
0.000352003970462768
0.000352090876115843
0.000352110173796412
0.000352114186557749
0.000352114959234448
0.000352115078189871
0.000352115073238443
0.00035211504989394
0.000352115023861471
0.000352114998060645
0.000352114972986854
0.000352114948710716
0.000352114925285133
0.000352114902749346
0.000352114881168376
0.000352114860582371
0.000352114841045404
0.000352114822582155
0.000352114805229453
0.000352114788998238
0.000352114773915269
0.000352114759991499
0.000352114747259752
0.000352114735747183
0.000352114725477787
0.000352114716351838
0.000352114707807401
0.000352114696526045
0.000352114663957831
0.000352114510257527
0.000352113722648867
0.000352109789491033
0.000352091069614405
0.00035200705290129
0.000351655452960637
0.000350302496768627
0.000345598930525599
0.000331141470371016
0.00029283002290348
0.000207727760291586
5.04821810989429e-05
1.90517607957813e-06
1.84399983451468e-06
4.97749832807589e-05
0.000206677535061063
0.000292628064348024
0.000331669216837242
0.000346523465019642
0.000351389854059631
0.000352797237409566
0.000353164334973939
0.0003532522135754
0.00035327177913351
0.000353275862426602
0.000353276655116596
0.000353276781709168
0.000353276780570648
0.000353276759882603
0.00035327673606284
0.000353276712162294
0.000353276688749296
0.000353276665946368
0.000353276643839511
0.000353276622487449
0.000353276601966426
0.000353276582323754
0.000353276563617457
0.000353276545874635
0.00035327652913225
0.000353276513399795
0.000353276498699903
0.000353276485035226
0.000353276472426466
0.00035327646088099
0.000353276450407624
0.000353276440908247
0.000353276431812388
0.000353276419767808
0.000353276386123657
0.000353276230855599
0.000353275440295812
0.000353271497760161
0.000353252735136016
0.000353168511034141
0.000352815959985312
0.00035145904933432
0.000346740955269024
0.000332237432280267
0.000293802585208785
0.000208424501845269
5.06325603028674e-05
1.90961549184763e-06
1.84577072734012e-06
4.98370864192077e-05
0.000206988755264651
0.00029308962740298
0.000332213098713658
0.00034710638184355
0.000351988972132615
0.000353402323972877
0.000353771402577313
0.000353859882465303
0.000353879617835988
0.000353883747078897
0.000353884553062777
0.000353884684791594
0.000353884686387359
0.000353884667599876
0.000353884645392152
0.000353884622912355
0.000353884600771879
0.0003538845791233
0.000353884558072378
0.000353884537689458
0.000353884518056894
0.000353884499226217
0.000353884481257495
0.000353884464179171
0.00035388444802793
0.000353884432812438
0.000353884418552499
0.000353884405246333
0.000353884392907459
0.000353884381532902
0.00035388437112178
0.000353884361573409
0.000353884352313364
0.000353884339976359
0.000353884305871694
0.000353884149878935
0.000353883357872285
0.000353879410684788
0.000353860626795568
0.00035377629864127
0.000353423265970474
0.000352064337026325
0.000347338781004122
0.000332811474981519
0.00029431260239096
0.000208790565481932
5.07105435191336e-05
1.91188543843422e-06
1.84660999791688e-06
4.98670443600928e-05
0.00020714296983295
0.000293321073034923
0.000332487994336796
0.000347402434261407
0.000352294039140284
0.000353710799406537
0.000354081038730432
0.00035416987996112
0.000354189720008678
0.000354193878350741
0.000354194692961569
0.000354194828238829
0.000354194831891717
0.000354194814529376
0.000354194793555067
0.000354194772192918
0.000354194751079801
0.000354194730384837
0.00035419471022635
0.000354194690681005
0.000354194671833778
0.000354194653738114
0.000354194636454913
0.000354194620013243
0.000354194604449325
0.000354194589771122
0.000354194575996605
0.000354194563121226
0.000354194551154258
0.00035419454008702
0.000354194529912797
0.000354194520528502
0.000354194511359332
0.000354194499040465
0.000354194464873288
0.000354194308688391
0.000354193516115766
0.000354189566802869
0.000354170772762121
0.000354086394045816
0.000353733124660624
0.000352373195182215
0.000347643914545638
0.000333104667375706
0.000294573462168212
0.000208978221332314
5.07500445339848e-05
1.91302055132164e-06
1.84699893832627e-06
4.98811564698912e-05
0.000207217554456668
0.000293434383980423
0.000332623694208032
0.000347549326924529
0.000352445826151573
0.000353864484902643
0.00035423538724952
0.000354324440126363
0.000354344343112549
0.00035434851949458
0.000354349339670148
0.00035434947747653
0.000354349482747141
0.000354349466526502
0.000354349446563685
0.00035434942614088
0.00035434940590944
0.000354349386047293
0.000354349366683639
0.000354349347898393
0.000354349329776291
0.000354349312371158
0.000354349295743914
0.000354349279923793
0.000354349264946408
0.000354349250819188
0.000354349237558521
0.000354349225158237
0.000354349213624593
0.000354349202945656
0.000354349193110906
0.000354349184015937
0.000354349175087951
0.000354349162970601
0.000354349128974447
0.000354348972906412
0.000354348180254412
0.000354344230117794
0.000354325431480105
0.000354241028945724
0.000353887646257542
0.000352527233236641
0.000347796139426621
0.000333251042561758
0.000294703897460644
0.000209072289588009
5.07696268472299e-05
1.91357679260807e-06
1.84717527535803e-06
4.98876564353086e-05
0.000207252823470354
0.000293488649301186
0.0003326892485168
0.000347620675101751
0.000352519773459077
0.000353939465977226
0.000354310738390671
0.00035439991239504
0.000354419852440286
0.000354424039875833
0.000354424863691507
0.000354425003391446
0.000354425010015858
0.000354424994788988
0.00035442497573003
0.000354424956162591
0.000354424936744074
0.000354424917655729
0.000354424899042942
0.000354424880987135
0.000354424863569652
0.000354424846843156
0.000354424830867975
0.000354424815673276
0.000354424801293977
0.000354424787737018
0.000354424775017369
0.000354424763127517
0.000354424752071442
0.000354424741834868
0.000354424732404564
0.000354424723675278
0.000354424715076994
0.000354424703264639
0.000354424669564953
0.00035442451377487
0.00035442372129609
0.000354419770988982
0.000354400970455247
0.000354316557073071
0.000353963121376728
0.000352602479521336
0.000347870521306566
0.000333322618500517
0.000294767778882375
0.000209118479249434
5.07791413122389e-05
1.91384429424976e-06
1.84725360322545e-06
4.98905849423724e-05
0.00020726914418354
0.000293514102906657
0.000332720286029756
0.000347654655157231
0.000352555107197938
0.000353975351422383
0.000354346826165226
0.000354436068103768
0.000354456029634182
0.000354460223851904
0.000354461050136512
0.000354461191342311
0.000354461199166296
0.000354461184860872
0.00035446116665993
0.000354461147913558
0.000354461129275925
0.000354461110925081
0.000354461093038783
0.000354461075699288
0.000354461058979623
0.000354461042929324
0.000354461027607553
0.000354461013043281
0.000354460999270765
0.000354460986296456
0.00035446097413377
0.000354460962774021
0.000354460952219006
0.000354460942452434
0.00035446093345869
0.000354460925131317
0.000354460916901772
0.000354460905433753
0.000354460872067773
0.00035446071659843
0.000354459924389103
0.000354455974212384
0.000354437173048529
0.000354352754924152
0.000353999294854473
0.000352638546244804
0.00034790618212663
0.000333356955427416
0.000294798466778893
0.000209140720709652
5.07836755107478e-05
1.91397065320419e-06
1.8472878422757e-06
4.98918740753519e-05
0.000207276526572533
0.000293525796002341
0.00033273469726048
0.000347670537914562
0.000352571683838815
0.000353992217542174
0.000354363800961415
0.000354453080376357
0.000354473054269202
0.000354477252732994
0.000354478080795006
0.000354478223276144
0.000354478232214768
0.00035447821880319
0.000354478201452636
0.000354478183525922
0.000354478165660884
0.000354478148019807
0.000354478130847239
0.000354478114225602
0.00035447809821117
0.00035447808284723
0.000354478068191067
0.000354478054271367
0.000354478041121819
0.000354478028748623
0.000354478017163173
0.000354478006355297
0.000354477996324712
0.000354477987053102
0.000354477978522321
0.000354477970623809
0.000354477962787579
0.000354477951679134
0.000354477918642753
0.000354477763476522
0.000354476971557899
0.000354473021643379
0.000354454220426704
0.00035436980036086
0.000354016329177733
0.000352655530908027
0.000347922977256143
0.000333373131934995
0.000294812935654547
0.000209151223667556
5.07857935317007e-05
1.91402874889988e-06
1.84730230758631e-06
4.98924244769624e-05
0.00020727977140289
0.000293531044237029
0.000332741255074153
0.000347677824384091
0.000352579322155822
0.000354000005790847
0.000354371646757274
0.00035446094660402
0.000354480927627819
0.000354485128850842
0.000354485958273707
0.000354486101882414
0.000354486111869013
0.000354486099326684
0.000354486082820402
0.000354486065712797
0.000354486048607119
0.000354486031625946
0.000354486015140032
0.000354485999228693
0.000354485983919132
0.00035448596924427
0.000354485955258653
0.00035448594199064
0.000354485929473811
0.000354485917715183
0.000354485906722293
0.000354485896483302
0.000354485886995582
0.000354485878238806
0.000354485870191913
0.000354485862743392
0.000354485855318405
0.000354485844575617
0.000354485811851441
0.00035448565695409
0.000354484865317594
0.000354480915709383
0.000354462114678613
0.000354377693906666
0.000354024217594459
0.000352663395783324
0.000347930752629246
0.000333380617651462
0.000294819627303781
0.000209156079018141
5.07867600708767e-05
1.91405481208255e-06
1.8473082485437e-06
4.9892640774833e-05
0.000207281127037316
0.000293533325584046
0.000332744167807564
0.000347681097495111
0.000352582773172148
0.000354003533855766
0.000354375204972899
0.000354464515882147
0.000354484501065601
0.00035448870415898
0.000354489534667178
0.000354489679304714
0.000354489690258516
0.000354489678539888
0.000354489662855395
0.000354489646556177
0.000354489630190738
0.000354489613808809
0.00035448959797954
0.000354489582766169
0.000354489568155978
0.000354489554169206
0.000354489540857258
0.000354489528248129
0.000354489516376803
0.000354489505255026
0.00035448949488082
0.000354489485239806
0.000354489476326909
0.000354489468119686
0.000354489460594173
0.000354489453635251
0.00035448944666091
0.000354489436317063
0.000354489403924958
0.00035448924930812
0.00035448845797155
0.000354484508696752
0.000354465707953466
0.000354381287015413
0.000354027808234444
0.000352666974660558
0.000347934287712477
0.000333384014298103
0.00029482265320723
0.000209158261365895
5.07871844173235e-05
1.91406605421092e-06
1.84730851620098e-06
4.98926781630394e-05
0.000207281609026317
0.000293534263504644
0.000332745420305722
0.000347682528269171
0.000352584294722016
0.000354005095184474
0.000354376782060966
0.0003544660989284
0.000354486086541793
0.000354490290912791
0.000354491122271771
0.000354491267898787
0.000354491279668958
0.000354491268646471
0.00035449125368535
0.000354491238119852
0.000354491222435155
0.000354491206596816
0.000354491191386439
0.000354491176825284
0.000354491162870877
0.000354491149535388
0.000354491136867511
0.00035449112489498
0.000354491113658468
0.000354491103188791
0.000354491093456254
0.00035449108444112
0.000354491076135699
0.000354491068515566
0.000354491061553948
0.000354491055132286
0.000354491048660839
0.000354491038771462
0.00035449100676917
0.00035449085249244
0.000354490061505894
0.000354486112599509
0.000354467312200769
0.000354382891343022
0.000354029411282726
0.000352668571291856
0.000347935861905159
0.000333385519135719
0.000294823982884983
0.000209159197164684
5.07873584362841e-05
1.9140712850806e-06
1.8473035901024e-06
4.98926293727042e-05
0.000207281700906886
0.000293534576440001
0.000332745914477218
0.000347683121943672
0.000352584938466478
0.000354005760290241
0.000354377455494023
0.000354466775478962
0.000354486764428742
0.000354490969606743
0.000354491801586867
0.000354491948423479
0.000354491960732484
0.000354491950105991
0.000354491935601717
0.000354491920544233
0.000354491905371883
0.000354491890008355
0.000354491875311277
0.00035449186127148
0.000354491847849041
0.000354491835054404
0.000354491822933453
0.000354491811512736
0.000354491800849192
0.000354491791044246
0.000354491781981691
0.000354491773627083
0.000354491765969563
0.000354491758982989
0.00035449175263823
0.000354491746813839
0.000354491740913593
0.000354491731557749
0.000354491700038326
0.000354491546203882
0.000354490755657493
0.000354486807192646
0.00035446800721265
0.000354383586582009
0.000354030105820841
0.00035266926195963
0.000347936541998545
0.000333386161264767
0.000294824527172018
0.00020915953569181
5.07873926774398e-05
1.91407031828494e-06
1.84729933123635e-06
4.9892577139661e-05
0.000207281645216429
0.000293534604812375
0.000332746050403103
0.000347683324708212
0.000352585174004916
0.000354006009987328
0.000354377710762442
0.000354467032960592
0.000354487023089179
0.000354491229176301
0.000354492062014155
0.000354492212163534
0.000354492225578436
0.000354492215605701
0.00035449220174941
0.000354492187370601
0.000354492172935485
0.000354492158425276
0.000354492144503256
0.000354492131188438
0.00035449211847802
0.000354492106392301
0.000354492094977982
0.000354492084260915
0.000354492074296467
0.000354492065191832
0.000354492056818436
0.000354492049147691
0.000354492042167302
0.000354492035849571
0.000354492030163575
0.000354492024986036
0.000354492019716149
0.000354492010967008
0.000354491980021294
0.000354491826732752
0.00035449103672456
0.000354487088791278
0.000354468289318309
0.000354383869036555
0.000354030387922197
0.000352669541183637
0.000347936810959751
0.000333386391785585
0.000294824684301746
0.000209159597202735
5.0787363311138e-05
1.91406692549767e-06
1.84729649582565e-06
4.98925224505518e-05
0.000207281524225577
0.000293534525382458
0.000332746020660122
0.000347683341742088
0.000352585213833936
0.000354006060091394
0.000354377765043301
0.000354467089118491
0.000354487080482251
0.000354491287639012
0.00035449212130422
0.000354492272703276
0.000354492287145569
0.000354492278232721
0.0003544922654043
0.000354492252037342
0.000354492238672031
0.000354492225381375
0.000354492212543939
0.000354492200229486
0.000354492188476299
0.000354492177318411
0.000354492166805805
0.000354492156964625
0.00035449214782968
0.000354492139432506
0.000354492131744061
0.000354492124741231
0.000354492118409397
0.000354492112717965
0.000354492107633444
0.000354492103030295
0.000354492098304018
0.000354492090063601
0.000354492059585669
0.000354491906721631
0.000354491117098688
0.000354487169512009
0.000354468370333704
0.000354383950159876
0.000354030468397203
0.000352669618152017
0.000347936872987564
0.000333386420564036
0.000294824667892068
0.00020915955302472
5.07873266371477e-05
1.9140646892318e-06
1.8472940934262e-06
4.98924645928795e-05
0.000207281361473995
0.000293534378685926
0.000332745911065678
0.000347683262790221
0.000352585150149816
0.000354006003235225
0.000354377710944456
0.000354467036309883
0.000354487028613962
0.000354491236635196
0.000354492070787965
0.000354492220209099
0.000354492235577258
0.000354492227584587
0.000354492215666872
0.000354492203200035
0.000354492190766715
0.000354492178486665
0.000354492166589962
0.000354492155158895
0.000354492144254292
0.000354492133918184
0.000354492124202195
0.000354492115133014
0.000354492106740571
0.000354492099036481
0.000354492092015764
0.000354492085656571
0.000354492079939898
0.000354492074830451
0.000354492070291447
0.00035449206619553
0.000354492061935584
0.00035449205412044
0.000354492024023231
0.000354491871485118
0.000354491082124194
0.000354487134745121
0.000354468335739766
0.000354383915616344
0.000354030433270005
0.000352669580033662
0.000347936825098456
0.000333386361284762
0.000294824582472673
0.00020915945512921
5.07872850114829e-05
1.91406277959349e-06
1.84729160531209e-06
4.98923971874598e-05
0.000207281140400242
0.000293534148283114
0.000332745705533694
0.000347683079600147
0.000352584978643425
0.000354005836830396
0.000354377546581856
0.000354466872953902
0.000354486866064604
0.000354491074878686
0.000354491909631802
0.000354492059063284
0.000354492075217496
0.000354492067970137
0.000354492056812565
0.00035449204511056
0.000354492033464495
0.000354492022015924
0.000354492010923268
0.000354492000267603
0.000354491990119153
0.000354491980524309
0.000354491971535641
0.000354491963180749
0.000354491955489309
0.000354491948468214
0.000354491942118712
0.000354491936417318
0.0003544919313383
0.000354491926839733
0.000354491922882424
0.000354491919339895
0.000354491915605612
0.000354491908294625
0.000354491878680525
0.000354491726584959
0.000354490937607423
0.000354486990589826
0.000354468192035578
0.000354383772571823
0.000354030291070657
0.000352669438245994
0.000347936681246107
0.000333386212745444
0.00029482442620038
0.000209159311483277
5.07872383103934e-05
1.91406107426529e-06
1.84728869188977e-06
4.9892306274868e-05
0.000207280801638288
0.00029353375846965
0.000332745322759668
0.000347682711576192
0.000352584619581423
0.000354005481801938
0.00035437719319459
0.000354466520417149
0.000354486514252213
0.000354490723805921
0.000354491559176587
0.000354491709113589
0.000354491726010879
0.000354491719427889
0.000354491708975887
0.000354491697992425
0.000354491687077041
0.000354491676379126
0.000354491666024383
0.000354491656090207
0.000354491646650446
0.000354491637753941
0.000354491629454304
0.000354491621781084
0.000354491614765741
0.000354491608415591
0.000354491602732945
0.000354491597689625
0.000354491593248729
0.000354491589358019
0.000354491585976722
0.000354491582983017
0.000354491579774655
0.000354491572980634
0.00035449154387871
0.000354491392256063
0.00035449060368586
0.000354486657095181
0.000354467859235072
0.000354383441159136
0.000354029962426903
0.00035266911468282
0.00034793636594807
0.000333385910945096
0.000294824148855056
0.000209159093934063
5.07871817102456e-05
1.91405931935528e-06
1.84728435356488e-06
4.98921620542263e-05
0.000207280202261643
0.000293533020079291
0.000332744555703415