/*--------------------------------*- C++ -*----------------------------------*\
  =========                 |
  \\      /  F ield         | OpenFOAM: The Open Source CFD Toolbox
   \\    /   O peration     | Website:  https://openfoam.org
    \\  /    A nd           | Version:  10
     \\/     M anipulation  |
\*---------------------------------------------------------------------------*/
FoamFile
{
    format      ascii;
    class       volScalarField;
    location    "1.8";
    object      nut;
}
// * * * * * * * * * * * * * * * * * * * * * * * * * * * * * * * * * * * * * //

dimensions      [0 2 -1 0 0 0 0];

internalField   nonuniform List<scalar> 
2500
(
1.70205546429565e-13
1.22472196058858e-12
4.03715437817253e-12
5.69186415597369e-12
6.39299798780642e-12
6.63264182595232e-12
6.70218121792207e-12
6.71990620142223e-12
6.72397307624873e-12
6.7248272534052e-12
6.72499148816309e-12
6.7250175542101e-12
6.7250178713453e-12
6.72501499017986e-12
6.72501180670024e-12
6.72500890512401e-12
6.72500645181242e-12
6.72500438048442e-12
6.72500257971797e-12
6.72500097163062e-12
6.72499953111848e-12
6.72499824181227e-12
6.7249970943703e-12
6.72499607689609e-12
6.72499519746698e-12
6.72499445771604e-12
6.72499384899959e-12
6.72499338524819e-12
6.72499309046397e-12
6.72499303248032e-12
6.72499320811638e-12
6.72499360772658e-12
6.72499410843738e-12
6.72499462230062e-12
6.72499548024815e-12
6.72499654261887e-12
6.72499769988845e-12
6.72499773123292e-12
6.72498809397425e-12
6.72492634077134e-12
6.72462423484901e-12
6.72327240545853e-12
6.71761462227246e-12
6.69566023016672e-12
6.617793437424e-12
6.37030942606202e-12
5.68481943599901e-12
4.09786806292876e-12
1.29036418820187e-12
1.8180187906946e-13
6.91309140011786e-12
2.66358007937773e-10
9.8664300047563e-10
1.4270669745863e-09
1.62206294737135e-09
1.69137574577478e-09
1.71217549311678e-09
1.7176305040697e-09
1.71891290963246e-09
1.71918799331874e-09
1.71924209896345e-09
1.71925121578802e-09
1.71925167808066e-09
1.71925099022802e-09
1.71925019264541e-09
1.71924945542711e-09
1.71924882268391e-09
1.71924828207961e-09
1.71924780980135e-09
1.71924738954987e-09
1.71924701414369e-09
1.71924667905608e-09
1.71924638148124e-09
1.71924611573126e-09
1.71924588504146e-09
1.71924569220681e-09
1.7192455320525e-09
1.71924541002173e-09
1.71924533410746e-09
1.71924531633675e-09
1.71924535387395e-09
1.71924544417838e-09
1.71924556786898e-09
1.71924570407153e-09
1.71924591593133e-09
1.71924617663967e-09
1.7192464423061e-09
1.71924629528985e-09
1.719242913932e-09
1.71922274478392e-09
1.71912661702738e-09
1.71870304780957e-09
1.71696031841822e-09
1.71033099738231e-09
1.68736213433665e-09
1.61636387588487e-09
1.42614395268507e-09
1.00270389150872e-09
2.81910950493526e-10
7.80914498589667e-12
2.01402800159082e-11
4.40815080633277e-09
1.28325818312545e-06
1.85580905009042e-06
2.11324210211669e-06
2.20728601024179e-06
2.23635403184955e-06
2.24419716453902e-06
2.24609015298414e-06
2.2465062626198e-06
2.24659026538866e-06
2.24660519358468e-06
2.24660652683483e-06
2.24660582657204e-06
2.24660492497404e-06
2.24660407424376e-06
2.24660333508032e-06
2.24660269864502e-06
2.24660214092819e-06
2.24660164358243e-06
2.2466011978667e-06
2.24660079825428e-06
2.24660044171163e-06
2.24660012499463e-06
2.24659984836185e-06
2.24659961306983e-06
2.24659941883918e-06
2.24659926721879e-06
2.2465991670308e-06
2.24659913433646e-06
2.24659916012862e-06
2.24659924836079e-06
2.24659938008658e-06
2.24659953473511e-06
2.24659975850056e-06
2.24660003621111e-06
2.24660028677642e-06
2.24659985909182e-06
2.24659453699848e-06
2.24656475198507e-06
2.24642529321008e-06
2.24581746317901e-06
2.2433469296251e-06
2.23408229094972e-06
2.20251557974124e-06
2.10677038687294e-06
1.85508139719195e-06
1.30153267414195e-06
4.62736774726384e-09
2.22364323336871e-11
3.23531583014113e-11
7.38190742490916e-09
2.13187579833776e-06
3.05398804418793e-06
3.46745424168107e-06
3.61961111531373e-06
3.66721310608273e-06
3.68024161467534e-06
3.68343462718986e-06
3.68414782251061e-06
3.68429440262146e-06
3.68432133650476e-06
3.68432447595351e-06
3.68432355250405e-06
3.68432230935642e-06
3.68432111269617e-06
3.68432006428933e-06
3.68431915577249e-06
3.68431835567861e-06
3.68431763984131e-06
3.684316995014e-06
3.6843164139276e-06
3.68431589303892e-06
3.68431542889409e-06
3.6843150209016e-06
3.68431466987605e-06
3.68431437638961e-06
3.68431414201702e-06
3.68431398255405e-06
3.68431390697953e-06
3.68431389948483e-06
3.68431400351331e-06
3.68431415596697e-06
3.68431435072616e-06
3.68431462349799e-06
3.68431497943782e-06
3.68431527254081e-06
3.68431448209531e-06
3.68430600281711e-06
3.68425963054577e-06
3.68404141364398e-06
3.68308317399936e-06
3.67916040848452e-06
3.6643569863983e-06
3.61366194270382e-06
3.45930744242863e-06
3.05211205962388e-06
2.1511895897948e-06
7.62183889807559e-09
3.46230923866136e-11
4.17942015386058e-11
9.73440205576507e-09
2.79364714034404e-06
3.97788480620668e-06
4.50890041881273e-06
4.70564862778216e-06
4.76784158860963e-06
4.78507467458038e-06
4.78935566249471e-06
4.79032582983244e-06
4.7905284763778e-06
4.79056681159218e-06
4.79057207354311e-06
4.79057138157808e-06
4.79057007319232e-06
4.79056876991607e-06
4.79056761315384e-06
4.79056660156107e-06
4.79056570442318e-06
4.79056489699925e-06
4.79056416522651e-06
4.7905635015548e-06
4.79056290251224e-06
4.79056236500707e-06
4.79056188848262e-06
4.79056147316296e-06
4.79056111961685e-06
4.79056082938788e-06
4.79056061542817e-06
4.79056048686172e-06
4.7905604489861e-06
4.79056049706277e-06
4.79056062157034e-06
4.7905607985659e-06
4.79056104961246e-06
4.79056137842078e-06
4.79056162938357e-06
4.79056042166282e-06
4.79054955324619e-06
4.79049170987334e-06
4.79021832939558e-06
4.78900971522121e-06
4.78402952410042e-06
4.7651260846435e-06
4.70008636400576e-06
4.50139305827019e-06
3.97599969139971e-06
2.81026885935996e-06
9.94757204701313e-09
4.39044788324952e-11
4.84055661641309e-11
1.14351822549485e-08
3.27437921036203e-06
4.64630239026677e-06
5.26247745187146e-06
5.49220995089385e-06
5.56547803808456e-06
5.58599509060842e-06
5.59115180865579e-06
5.59233538252505e-06
5.5925861649914e-06
5.59263480123695e-06
5.59264227825195e-06
5.59264205915685e-06
5.59264087187699e-06
5.5926396248897e-06
5.59263849759827e-06
5.59263749937961e-06
5.59263660553404e-06
5.59263579445421e-06
5.59263505373647e-06
5.59263437670697e-06
5.59263376032249e-06
5.59263320235691e-06
5.59263270241892e-06
5.59263226033198e-06
5.59263187666497e-06
5.59263155263627e-06
5.59263129540525e-06
5.5926311265544e-06
5.59263102775116e-06
5.59263100721786e-06
5.59263107604184e-06
5.59263119937174e-06
5.59263138627573e-06
5.59263162237037e-06
5.59263173810829e-06
5.59263003060178e-06
5.59261744456125e-06
5.59255185956472e-06
5.59224081943947e-06
5.59085855847393e-06
5.58513388271681e-06
5.56330693781464e-06
5.48794486036402e-06
5.25719390495033e-06
4.64631962377178e-06
3.28949408637337e-06
1.16224759821057e-08
5.03516828055083e-11
5.27032773061164e-11
1.25771375260978e-08
3.60243850655008e-06
5.10288218545134e-06
5.77833708919573e-06
6.03155196744103e-06
6.11291186073841e-06
6.13589614417978e-06
6.14173013460666e-06
6.1430837478373e-06
6.14337414540107e-06
6.14343163341528e-06
6.14344116342292e-06
6.14344150286869e-06
6.14344053096484e-06
6.14343942684311e-06
6.14343840405018e-06
6.14343748381761e-06
6.14343664964539e-06
6.14343588496174e-06
6.14343518020226e-06
6.1434345301861e-06
6.14343393272002e-06
6.14343338635961e-06
6.1434328909423e-06
6.14343244629614e-06
6.1434320530166e-06
6.14343171200756e-06
6.14343142715926e-06
6.14343121263569e-06
6.14343105429299e-06
6.14343097812905e-06
6.14343097924709e-06
6.14343103573397e-06
6.14343113676139e-06
6.14343126008714e-06
6.14343118473317e-06
6.14342902189287e-06
6.14341525166827e-06
6.14334460358896e-06
6.14300878018308e-06
6.14151078643391e-06
6.13528355331073e-06
6.11146222121359e-06
6.02900826096599e-06
5.77616848875703e-06
5.10647113293299e-06
3.61860957337371e-06
1.27551445494684e-08
5.45729317080427e-11
5.53304476216954e-11
1.32970316974813e-08
3.81405815765998e-06
5.39873758082633e-06
6.11382308892245e-06
6.38311428778287e-06
6.47016078344621e-06
6.49492733913238e-06
6.50126459317148e-06
6.50274824951541e-06
6.50306989086945e-06
6.5031345931458e-06
6.50314590202763e-06
6.50314680835153e-06
6.50314606957435e-06
6.50314513578146e-06
6.50314424379132e-06
6.50314342588225e-06
6.50314267372635e-06
6.5031419761088e-06
6.50314132653435e-06
6.5031407214979e-06
6.50314015978344e-06
6.50313964060874e-06
6.50313916413297e-06
6.50313873033494e-06
6.50313833983953e-06
6.50313799327466e-06
6.50313769275331e-06
6.50313744416432e-06
6.50313724724858e-06
6.50313711395612e-06
6.50313704492429e-06
6.50313702408429e-06
6.50313705170629e-06
6.50313707915941e-06
6.50313680555979e-06
6.50313427274293e-06
6.50311974640668e-06
6.50304588911091e-06
6.50269441320775e-06
6.50112259481224e-06
6.49457121214934e-06
6.46945174983129e-06
6.38235440625436e-06
6.11502068442274e-06
5.40677968646192e-06
3.83332899241924e-06
1.34809055478074e-08
5.7201894153083e-11
5.68543880689242e-11
1.37267533400122e-08
3.94379739184928e-06
5.58139252833022e-06
6.32193457955596e-06
6.60181154343335e-06
6.69270277037429e-06
6.7187077354621e-06
6.72540453080722e-06
6.72698373656665e-06
6.72732901280264e-06
6.72739932299906e-06
6.72741211015179e-06
6.72741353814156e-06
6.72741298039391e-06
6.7274122061764e-06
6.72741144034554e-06
6.72741072335265e-06
6.72741005370658e-06
6.72740942489011e-06
6.72740883315785e-06
6.72740827653322e-06
6.72740775469406e-06
6.72740726742708e-06
6.72740681520796e-06
6.72740639819023e-06
6.72740601703517e-06
6.72740567219012e-06
6.72740536495858e-06
6.72740509793705e-06
6.72740487300453e-06
6.7274046959228e-06
6.72740456830363e-06
6.72740448281525e-06
6.72740443514917e-06
6.72740436111114e-06
6.72740392473856e-06
6.72740117384583e-06
6.7273861632292e-06
6.7273103454217e-06
6.7269493951835e-06
6.725332547196e-06
6.71858149924365e-06
6.69265591900962e-06
6.6026598477753e-06
6.32625903510754e-06
5.59392448300071e-06
3.9670770127343e-06
1.39246170230635e-08
5.87695778180563e-11
5.76991875324996e-11
1.39713467023481e-08
4.01977549817751e-06
5.68929483638515e-06
6.44556955810849e-06
6.73215820180733e-06
6.82555292901394e-06
6.85238654219288e-06
6.85933060438222e-06
6.86097735405517e-06
6.86133981121897e-06
6.86141429532827e-06
6.861428216607e-06
6.86143004459118e-06
6.86142967931892e-06
6.86142903881894e-06
6.8614283793791e-06
6.86142774880178e-06
6.8614271508199e-06
6.8614265825638e-06
6.86142604246494e-06
6.86142552977899e-06
6.8614250449074e-06
6.861424588089e-06
6.86142416006465e-06
6.86142376113803e-06
6.86142339200204e-06
6.86142305299022e-06
6.86142274499388e-06
6.86142246919564e-06
6.86142222718195e-06
6.86142202173942e-06
6.8614218542541e-06
6.86142172099038e-06
6.86142161242829e-06
6.86142146546128e-06
6.86142092599462e-06
6.8614180300298e-06
6.86140271024366e-06
6.86132573846833e-06
6.86095929007643e-06
6.85931615478074e-06
6.85244750572482e-06
6.82604355064524e-06
6.73431856902196e-06
6.45249670761746e-06
5.70575352038261e-06
4.04698508264188e-06
1.41849430295471e-08
5.9669364827301e-11
5.81493529094324e-11
1.41048863473202e-08
4.06247750626999e-06
5.7505413743857e-06
6.51618995142717e-06
6.80688337225916e-06
6.90185075717966e-06
6.92921921025388e-06
6.93632725443607e-06
6.93802002391672e-06
6.93839450791031e-06
6.93847198770811e-06
6.93848672998336e-06
6.93848886722954e-06
6.9384886572182e-06
6.93848811981069e-06
6.93848754296257e-06
6.93848698048089e-06
6.93848643978942e-06
6.93848592059996e-06
6.93848542291359e-06
6.93848494689158e-06
6.93848449346447e-06
6.93848406320314e-06
6.93848365704652e-06
6.93848327540801e-06
6.93848291900466e-06
6.9384825880985e-06
6.93848228335231e-06
6.93848200530038e-06
6.93848175498717e-06
6.93848153371023e-06
6.93848134237216e-06
6.93848117861217e-06
6.93848103166688e-06
6.93848083695914e-06
6.93848023112994e-06
6.93847724072462e-06
6.93846173332924e-06
6.93838410792646e-06
6.93801459621426e-06
6.93635674385171e-06
6.92942170470473e-06
6.90274573122727e-06
6.8100325867687e-06
6.52510303878023e-06
5.77008814540643e-06
4.09297000804752e-06
1.43322208190575e-08
6.0168614932326e-11
5.83810544334646e-11
1.41751718673658e-08
4.08560994145904e-06
5.78407565007072e-06
6.555121788231e-06
6.8482421239706e-06
6.94416457969051e-06
6.9718667008569e-06
6.97907982666616e-06
6.9808028797065e-06
6.98118548924651e-06
6.98126504916881e-06
6.98128036888733e-06
6.98128272747177e-06
6.98128262939704e-06
6.98128216665321e-06
6.98128165062005e-06
6.98128113918306e-06
6.98128064216347e-06
6.98128016096069e-06
6.98127969662308e-06
6.98127924992799e-06
6.98127882216401e-06
6.9812784141266e-06
6.98127802688743e-06
6.98127766093537e-06
6.98127731700013e-06
6.98127699529833e-06
6.9812766963602e-06
6.98127642040264e-06
6.98127616807623e-06
6.98127593991918e-06
6.98127573640699e-06
6.98127555556238e-06
6.981275386244e-06
6.98127516265814e-06
6.98127451702065e-06
6.98127146972938e-06
6.98125585411924e-06
6.98117787262201e-06
6.98080671917044e-06
6.97914094442472e-06
6.97216987523488e-06
6.94534520832794e-06
6.85208897525417e-06
6.56544513838069e-06
5.8058552665884e-06
4.11855757797909e-06
1.44128944000371e-08
6.04373895361213e-11
5.84967122369879e-11
1.42109860580973e-08
4.09773502646832e-06
5.80185102811286e-06
6.5759085381125e-06
6.8704193716182e-06
6.96690384360037e-06
6.9948076216234e-06
7.00208595769726e-06
7.00382830108184e-06
7.00421622174793e-06
7.00429718008239e-06
7.00431289659893e-06
7.00431540660308e-06
7.00431538412584e-06
7.00431497405071e-06
7.004314501888e-06
7.00431402812697e-06
7.00431356403502e-06
7.00431311204071e-06
7.00431267384854e-06
7.0043122506222e-06
7.00431184387282e-06
7.00431145453792e-06
7.00431108376744e-06
7.00431073209825e-06
7.00431040026279e-06
7.0043100884489e-06
7.00430979710506e-06
7.00430952628355e-06
7.0043092763946e-06
7.00430904758408e-06
7.00430884002681e-06
7.00430865177724e-06
7.00430847152478e-06
7.0043082328055e-06
7.00430756583444e-06
7.00430448745841e-06
7.00428881333583e-06
7.00421064590663e-06
7.00383864491496e-06
7.00216875835012e-06
6.99517883189571e-06
6.96827576139966e-06
6.87473149054851e-06
6.5871743828141e-06
5.82513791269313e-06
4.13237162807932e-06
1.44558282397621e-08
6.05782201177372e-11
5.85528887836178e-11
1.42287165104878e-08
4.10390541617307e-06
5.81100218630249e-06
6.58669179145599e-06
6.88197655336447e-06
6.97878224078668e-06
7.00680435374883e-06
7.01412196717598e-06
7.01587623205769e-06
7.01626751954065e-06
7.01634938890736e-06
7.0163653689977e-06
7.0163679808366e-06
7.01636801257102e-06
7.01636764017742e-06
7.01636719997563e-06
7.01636675438278e-06
7.01636631552009e-06
7.01636588641199e-06
7.01636546915473e-06
7.0163650651424e-06
7.01636467600733e-06
7.01636430277063e-06
7.01636394662282e-06
7.01636360812739e-06
7.01636328801128e-06
7.01636298644597e-06
7.0163627038238e-06
7.01636244010921e-06
7.01636219557001e-06
7.01636197014699e-06
7.01636176382253e-06
7.01636157460026e-06
7.01636139109117e-06
7.01636114657264e-06
7.01636047046963e-06
7.01635737772368e-06
7.01634167491325e-06
7.01626341525309e-06
7.01589099265073e-06
7.01421904310103e-06
7.00721956780966e-06
6.98027648175445e-06
6.88658426678381e-06
6.59855562571045e-06
5.83524975609929e-06
4.13962938167334e-06
1.44780925219903e-08
6.06502280163668e-11
5.85795114767883e-11
1.42372693259285e-08
4.10696289226656e-06
5.81559086199882e-06
6.59214192009198e-06
6.88784614498682e-06
6.98483055988338e-06
7.01292025008561e-06
7.02026087659524e-06
7.02202230567437e-06
7.02241566854674e-06
7.02249811485225e-06
7.0225142659862e-06
7.02251694817879e-06
7.02251702069883e-06
7.02251667656062e-06
7.02251626081276e-06
7.02251583737847e-06
7.02251541888411e-06
7.02251500868213e-06
7.02251460911794e-06
7.02251422171095e-06
7.02251384814541e-06
7.02251348948047e-06
7.0225131469231e-06
7.02251282104919e-06
7.02251251257653e-06
7.02251222166263e-06
7.02251194866347e-06
7.02251169348862e-06
7.02251145632171e-06
7.02251123699042e-06
7.02251103536145e-06
7.0225108493908e-06
7.02251066768195e-06
7.02251042352146e-06
7.02250974617746e-06
7.0225066496204e-06
7.02249093558711e-06
7.02241263378717e-06
7.02204000991972e-06
7.02036705792703e-06
7.01336288952222e-06
6.98639996676475e-06
6.89263390704006e-06
6.60436851875242e-06
5.8404216168377e-06
4.14334988742117e-06
1.44893699230341e-08
6.06862355992722e-11
5.85918484134153e-11
1.42412980766082e-08
4.10844156695812e-06
5.8178373134706e-06
6.5948322526624e-06
6.89075838707105e-06
6.98783983858038e-06
7.01596716884979e-06
7.02332094075637e-06
7.02508656604251e-06
7.02548117677209e-06
7.02556398074903e-06
7.02558024221303e-06
7.02558297454944e-06
7.02558307914315e-06
7.02558275764054e-06
7.02558236194655e-06
7.02558195713551e-06
7.02558155612097e-06
7.02558116243002e-06
7.02558077862365e-06
7.02558040628578e-06
7.02558004709587e-06
7.02557970212063e-06
7.02557937256746e-06
7.0255790590155e-06
7.02557876217049e-06
7.02557848217936e-06
7.02557821936673e-06
7.02557797361002e-06
7.02557774503302e-06
7.02557753339894e-06
7.02557733849907e-06
7.02557715826321e-06
7.02557698133461e-06
7.0255767411679e-06
7.02557606721298e-06
7.0255729729712e-06
7.02555725736266e-06
7.02547893923083e-06
7.02510622422757e-06
7.02343280003649e-06
7.0164263853626e-06
6.98945387615718e-06
6.89565186929227e-06
6.607270507336e-06
5.84300758710441e-06
4.14521485750734e-06
1.44949604359862e-08
6.07038797308752e-11
5.85974409791304e-11
1.42431535237226e-08
4.10914074220997e-06
5.81891308416735e-06
6.59613182919201e-06
6.89217283021975e-06
6.98930581172145e-06
7.01745363755028e-06
7.02481474649205e-06
7.02658277329865e-06
7.02697811877871e-06
7.02706114190869e-06
7.02707747554349e-06
7.02708024542253e-06
7.02708037685715e-06
7.02708007505706e-06
7.02707969728284e-06
7.02707930943001e-06
7.02707892453205e-06
7.02707854618196e-06
7.02707817726165e-06
7.02707781938491e-06
7.02707747416401e-06
7.0270771426426e-06
7.02707682601628e-06
7.02707652486296e-06
7.02707623987459e-06
7.02707597118838e-06
7.02707571910087e-06
7.02707548346279e-06
7.02707526435283e-06
7.02707506148778e-06
7.02707487460509e-06
7.02707470161789e-06
7.02707453122449e-06
7.02707429710305e-06
7.02707362902435e-06
7.02707054029163e-06
7.02705482811588e-06
7.02697650660355e-06
7.02660375401426e-06
7.02493011478285e-06
7.01792264928823e-06
6.99094560365771e-06
6.89712646061821e-06
6.6086894726273e-06
5.84427401279635e-06
4.14613055236678e-06
1.44976765306374e-08
6.07123642390784e-11
5.85999244242914e-11
1.42439893028493e-08
4.10946423499708e-06
5.81941761334538e-06
6.59674705123424e-06
6.89284638647359e-06
6.9900062048555e-06
7.01816496856533e-06
7.02553008886641e-06
7.02729946254431e-06
7.02769523399582e-06
7.02777839159217e-06
7.02779477417729e-06
7.02779757391212e-06
7.02779772912979e-06
7.02779744559825e-06
7.02779708483483e-06
7.02779671326009e-06
7.02779634384346e-06
7.02779598011442e-06
7.0277956255968e-06
7.02779528192087e-06
7.02779495053407e-06
7.02779463241801e-06
7.02779432874524e-06
7.02779404008974e-06
7.02779376713037e-06
7.02779350999463e-06
7.02779326894829e-06
7.02779304381881e-06
7.0277928346416e-06
7.02779264109348e-06
7.02779246286464e-06
7.0277922978443e-06
7.02779213476002e-06
7.02779190746384e-06
7.02779124599954e-06
7.0277881636242e-06
7.02777245678916e-06
7.02769413786171e-06
7.02732137278548e-06
7.02564763956754e-06
7.01863969098652e-06
6.99166052937988e-06
6.8978333407388e-06
6.6093701108486e-06
5.84488232010556e-06
4.14657143319297e-06
1.44989707361142e-08
6.07163713130968e-11
5.86010092513912e-11
1.42443570331337e-08
4.10961051024423e-06
5.81964931692213e-06
6.59703262884458e-06
6.89316113289396e-06
6.99033470649803e-06
7.01849920898334e-06
7.0258664838131e-06
7.02763660048495e-06
7.02803261703404e-06
7.02811585881411e-06
7.02813227663873e-06
7.02813510165888e-06
7.0281352789756e-06
7.02813501316532e-06
7.02813466926144e-06
7.02813431393683e-06
7.02813395983712e-06
7.02813361017925e-06
7.02813326981126e-06
7.02813294036678e-06
7.02813262296103e-06
7.02813231845177e-06
7.02813202797431e-06
7.02813175209704e-06
7.02813149148749e-06
7.02813124626828e-06
7.02813101666498e-06
7.02813080247567e-06
7.02813060369451e-06
7.02813041995813e-06
7.02813025090657e-06
7.02813009438736e-06
7.02812993909939e-06
7.02812971893051e-06
7.02812906399919e-06
7.02812598763162e-06
7.02811028655859e-06
7.02803197282934e-06
7.0276592067121e-06
7.02598543503693e-06
7.01897726626941e-06
6.99199712067739e-06
6.89816617633339e-06
6.60969068775022e-06
5.84516905763399e-06
4.14677957816786e-06
1.44995751117998e-08
6.07182128896577e-11
5.86014668014451e-11
1.42445138522375e-08
4.10967475133281e-06
5.81975324013486e-06
6.59716249906393e-06
6.89330544324319e-06
6.99048599062076e-06
7.01865346511921e-06
7.02602188075373e-06
7.02779240248128e-06
7.02818856040497e-06
7.02827185688962e-06
7.02828830169488e-06
7.02829114907053e-06
7.02829134716451e-06
7.02829109858784e-06
7.02829077142218e-06
7.02829043233679e-06
7.02829009329154e-06
7.0282897567162e-06
7.02828942996099e-06
7.02828911459802e-06
7.02828881116609e-06
7.0282885203175e-06
7.02828824313324e-06
7.0282879801752e-06
7.02828773210878e-06
7.02828749907278e-06
7.02828728121633e-06
7.02828707830444e-06
7.02828689028476e-06
7.02828671675408e-06
7.02828655729466e-06
7.02828640969543e-06
7.0282862625592e-06
7.02828604963817e-06
7.02828540089489e-06
7.02828232985638e-06
7.02826663437528e-06
7.02818832671872e-06
7.02781556429357e-06
7.02614177865433e-06
7.01913350835063e-06
6.99215289661921e-06
6.89832017986774e-06
6.60983895488996e-06
5.84530159837928e-06
4.14687574969169e-06
1.44998507341742e-08
6.07190383073793e-11
5.86016539357663e-11
1.42445752832058e-08
4.10970153589161e-06
5.81979833974155e-06
6.5972200993526e-06
6.89337018191734e-06
6.99055425436807e-06
7.01872325584842e-06
7.02609226910569e-06
7.02786301012653e-06
7.02825925051372e-06
7.02834258407946e-06
7.02835905040268e-06
7.02836191817611e-06
7.02836213544592e-06
7.02836190319973e-06
7.02836159232653e-06
7.02836126926774e-06
7.02836094489786e-06
7.02836062020228e-06
7.02836030646487e-06
7.02836000493888e-06
7.02835971537172e-06
7.02835943816414e-06
7.02835917433497e-06
7.02835892443881e-06
7.02835868916895e-06
7.02835846875795e-06
7.02835826316624e-06
7.02835807210854e-06
7.02835789548395e-06
7.02835773284729e-06
7.02835758372328e-06
7.02835744582934e-06
7.028357307626e-06
7.02835710261274e-06
7.02835646045132e-06
7.02835339497248e-06
7.02833770543615e-06
7.02825940438964e-06
7.02788664767053e-06
7.02621285877356e-06
7.01920453967899e-06
6.99222369534058e-06
6.8983901124245e-06
6.60990614924741e-06
5.84536145946334e-06
4.14691892437624e-06
1.44999715580552e-08
6.07193935608177e-11
5.86016610975571e-11
1.42445856346569e-08
4.10971099894191e-06
5.81981680363101e-06
6.5972447826488e-06
6.89339839312221e-06
6.99058426315522e-06
7.018754052681e-06
7.02612337822804e-06
7.02789423734037e-06
7.02829052589645e-06
7.02837388479123e-06
7.02839036798202e-06
7.02839325537305e-06
7.02839348882812e-06
7.02839327038332e-06
7.02839297385124e-06
7.02839266533865e-06
7.02839235446445e-06
7.02839204054522e-06
7.02839173907704e-06
7.02839145048092e-06
7.0283911739143e-06
7.02839090961799e-06
7.02839065855702e-06
7.02839042128089e-06
7.02839019859563e-06
7.02838999111191e-06
7.02838979824066e-06
7.02838961959033e-06
7.02838945500818e-06
7.02838930400975e-06
7.02838916606407e-06
7.02838903882032e-06
7.0283889105858e-06
7.02838871458116e-06
7.02838808014647e-06
7.02838502140883e-06
7.02836933881051e-06
7.02829104506798e-06
7.02791829518622e-06
7.02624450791705e-06
7.01923616361418e-06
6.99225519265767e-06
6.89842116698396e-06
6.60993583526656e-06
5.84538768998198e-06
4.14693738410304e-06
1.45000209123023e-08
6.07195581207349e-11
5.86015034992764e-11
1.42445713817482e-08
4.10971272742892e-06
5.81982287612447e-06
6.59725443082814e-06
6.89341000740322e-06
6.99059686795571e-06
7.01876708036783e-06
7.02613657085114e-06
7.02790749173361e-06
7.02830380677703e-06
7.02838718167008e-06
7.02840367717547e-06
7.02840658854825e-06
7.02840683268596e-06
7.02840662209161e-06
7.02840633461635e-06
7.02840603617493e-06
7.02840573545769e-06
7.02840543095109e-06
7.02840513965858e-06
7.02840486139783e-06
7.02840459537688e-06
7.02840434180233e-06
7.02840410158349e-06
7.02840387524636e-06
7.02840366391947e-06
7.02840346961345e-06
7.028403290024e-06
7.02840312446791e-06
7.02840297272968e-06
7.02840283429079e-06
7.0284027085735e-06
7.02840259316976e-06
7.02840247625832e-06
7.02840229082988e-06
7.02840166596685e-06
7.02839861599622e-06
7.02838294212298e-06
7.02830465713421e-06
7.0279319155609e-06
7.02625813283007e-06
7.01924977478775e-06
6.9922687277047e-06
6.89843449450188e-06
6.60994841661885e-06
5.84539834879189e-06
4.14694400190184e-06
1.45000303593545e-08
6.07195260738293e-11
5.86013670674481e-11
1.42445561459343e-08
4.10971153006982e-06
5.8198233066731e-06
6.59725697617903e-06
6.89341387122937e-06
6.99060137937733e-06
7.01877187187089e-06
7.02614147264889e-06
7.02791243737229e-06
7.02830877577876e-06
7.02839216869473e-06
7.0284086812054e-06
7.0284116582589e-06
7.02841192432222e-06
7.02841172668891e-06
7.02841145206006e-06
7.02841116707343e-06
7.02841088097192e-06
7.02841059338253e-06
7.02841031745547e-06
7.02841005356722e-06
7.02840980166178e-06
7.02840956214116e-06
7.02840933593088e-06
7.02840912354315e-06
7.02840892607533e-06
7.02840874565243e-06
7.02840857972495e-06
7.02840842772581e-06
7.02840828941101e-06
7.02840816423122e-06
7.02840805157313e-06
7.0284079489924e-06
7.02840784457692e-06
7.0284076711754e-06
7.02840705768505e-06
7.02840401853581e-06
7.0283883553314e-06
7.02831008088135e-06
7.02793734936684e-06
7.02626357358885e-06
7.01925520870045e-06
6.99227410517864e-06
6.89843967062446e-06
6.6099528371373e-06
5.84540133154917e-06
4.14694512738296e-06
1.45000216461913e-08
6.07194170678677e-11
5.86012757915129e-11
1.42445402089048e-08
4.10970903801973e-06
5.8198215998584e-06
6.59725623686319e-06
6.89341405262942e-06
6.99060201052703e-06
7.01877270610292e-06
7.02614238952649e-06
7.02791339142565e-06
7.0283097543127e-06
7.02839316843413e-06
7.02840969734784e-06
7.02841269917775e-06
7.02841298561017e-06
7.02841280899011e-06
7.02841255473955e-06
7.02841228981351e-06
7.02841202492149e-06
7.02841176151051e-06
7.02841150708579e-06
7.02841126303003e-06
7.0284110301018e-06
7.02841080897542e-06
7.02841060064152e-06
7.02841040561806e-06
7.02841022459484e-06
7.02841005819682e-06
7.02840990584787e-06
7.02840976708947e-06
7.02840964163155e-06
7.02840952886732e-06
7.02840942813258e-06
7.02840933693817e-06
7.0284092432987e-06
7.02840907998147e-06
7.02840847576363e-06
7.02840544502885e-06
7.0283897894608e-06
7.02831152188224e-06
7.02793879621609e-06
7.02626502261349e-06
7.01925664502765e-06
6.99227547259057e-06
6.89844074394038e-06
6.60995325777006e-06
5.84540087359251e-06
4.14694415740115e-06
1.45000108466514e-08
6.07193447499211e-11
5.86011982518789e-11
1.42445233672372e-08
4.10970571799226e-06
5.81981855936872e-06
6.59725391435628e-06
6.89341233094876e-06
6.99060058935257e-06
7.01877141966621e-06
7.02614115759196e-06
7.0279121850325e-06
7.02830856655414e-06
7.02839199781324e-06
7.02840853639303e-06
7.0284114990067e-06
7.02841180379532e-06
7.0284116454185e-06
7.02841140922329e-06
7.02841116214257e-06
7.02841091572766e-06
7.02841067235237e-06
7.0284104365779e-06
7.0284102100353e-06
7.02840999393017e-06
7.02840978909542e-06
7.02840959655417e-06
7.02840941683523e-06
7.02840925053165e-06
7.02840909787345e-06
7.02840895876157e-06
7.02840883276256e-06
7.02840871949942e-06
7.02840861827213e-06
7.0284085283513e-06
7.02840844721168e-06
7.02840836281601e-06
7.02840820792852e-06
7.02840761125711e-06
7.02840458698227e-06
7.02838893660735e-06
7.02831067314445e-06
7.02793795091345e-06
7.02626417834577e-06
7.01925578934429e-06
6.99227455821199e-06
6.89843963796617e-06
6.60995193250849e-06
5.84539904740075e-06
4.14694212237859e-06
1.44999986333865e-08
6.07192827934997e-11
5.86011179931414e-11
1.42445037996444e-08
4.10970124162837e-06
5.81981385925929e-06
6.59724968972397e-06
6.89340854256784e-06
6.99059703041758e-06
7.01876796124043e-06
7.02613773949034e-06
7.02790878684906e-06
7.02830518435453e-06
7.02838863133124e-06
7.02840518181325e-06
7.02840814463154e-06
7.02840846500433e-06
7.02840832140378e-06
7.02840810027873e-06
7.02840786836103e-06
7.02840763755357e-06
7.02840741066247e-06
7.02840719082822e-06
7.02840697965784e-06
7.0284067785432e-06
7.0284065884037e-06
7.02840641028121e-06
7.0284062447226e-06
7.0284060923159e-06
7.02840595319749e-06
7.02840582739181e-06
7.02840571443296e-06
7.02840561381058e-06
7.02840552469317e-06
7.02840544630351e-06
7.02840537613381e-06
7.02840530215833e-06
7.02840515726459e-06
7.02840457016957e-06
7.02840155466692e-06
7.02838591189147e-06
7.02830765559497e-06
7.02793494231403e-06
7.02626118286095e-06
7.01925281077297e-06
6.9922715884125e-06
6.89843662935702e-06
6.60994883751431e-06
5.84539581642944e-06
4.14693918027588e-06
1.44999849710647e-08
6.0719227318343e-11
5.86010242424639e-11
1.42444775206467e-08
4.10969443189521e-06
5.81980599856178e-06
6.59724195096579e-06
6.89340108953985e-06
6.9905897528726e-06
7.01876076302934e-06
7.02613057365218e-06
7.027901637834e-06
7.02829804969237e-06
7.02838151133145e-06
7.0283980740568e-06
7.02840104689733e-06
7.02840138200225e-06
7.02840125157311e-06
7.02840104443624e-06
7.02840082676379e-06
7.02840061044217e-06
7.02840039843282e-06
7.02840019322758e-06
7.0283999963605e-06
7.02839980929532e-06
7.02839963300001e-06
7.02839946853712e-06
7.02839931649216e-06
7.02839917748854e-06
7.02839905167101e-06
7.02839893908512e-06
7.02839883917194e-06
7.02839875119956e-06
7.02839867413209e-06
7.02839860716097e-06
7.02839854787068e-06
7.02839848432052e-06
7.02839834967449e-06
7.02839777273218e-06
7.02839476660389e-06
7.02837913190269e-06
7.02830088407007e-06
7.02792818455775e-06
7.02625445265612e-06
7.01924613562346e-06
6.99226501460369e-06
6.89843022154482e-06
6.60994270385886e-06
5.84539018497876e-06
4.14693477291453e-06
1.44999684825158e-08
6.07191702703132e-11
5.86008852899887e-11
1.42444360219593e-08
4.10968245503191e-06
5.81979122673349e-06