/*--------------------------------*- C++ -*----------------------------------*\
  =========                 |
  \\      /  F ield         | OpenFOAM: The Open Source CFD Toolbox
   \\    /   O peration     | Website:  https://openfoam.org
    \\  /    A nd           | Version:  10
     \\/     M anipulation  |
\*---------------------------------------------------------------------------*/
FoamFile
{
    format      ascii;
    class       volScalarField;
    location    "1.8";
    object      omega;
}
// * * * * * * * * * * * * * * * * * * * * * * * * * * * * * * * * * * * * * //

dimensions      [0 0 -1 0 0 0 0];

internalField   nonuniform List<scalar> 
2500
(
128451.908941826
128480.57370669
128472.795126609
128470.979655674
128470.593936674
128470.51105153
128470.493191085
128470.488622577
128470.486682532
128470.485962646
128470.484953547
128470.484289141
128470.483882644
128470.483346472
128470.482855083
128470.482291525
128470.48201818
128470.481661967
128470.481252838
128470.48097103
128470.480692087
128470.480379018
128470.480092159
128470.480023776
128470.479934926
128470.479740676
128470.479703576
128470.479647128
128470.479554
128470.47961977
128470.479700612
128470.479751001
128470.479885095
128470.480073272
128470.480271141
128470.480465469
128470.480688709
128470.480868498
128470.48126813
128470.481640235
128470.482105114
128470.482806163
128470.484375583
128470.489471083
128470.511250198
128470.601871908
128470.998489244
128472.816493392
128480.710259307
128451.90191166
31808.1424246109
14130.5401377378
14126.7198655236
14125.617518832
14125.3298090809
14125.2582239247
14125.2415300135
14125.2378986142
14125.2371422348
14125.2369911411
14125.2369379752
14125.2369145963
14125.2369057883
14125.2368927525
14125.2368802429
14125.236865699
14125.2368571475
14125.2368472063
14125.2368367487
14125.2368267027
14125.2368078636
14125.2367801237
14125.2367489867
14125.2367493518
14125.2367513427
14125.2367323647
14125.2367379742
14125.2367372561
14125.236721532
14125.236738937
14125.2367439354
14125.2367247085
14125.2367536808
14125.2367947911
14125.2368084686
14125.2368137068
14125.236817925
14125.2368213861
14125.2368311374
14125.2368448529
14125.2368974575
14125.2371303377
14125.2381812028
14125.2428120922
14125.2621668967
14125.3384178726
14125.6280916935
14126.7207622349
14130.6092230531
31808.5260258429
31644.8905497793
3514.82095457563
50.6019806857763
50.5984546302822
50.5975182624686
50.5972814918736
50.5972251503524
50.5972126733444
50.5972100991747
50.5972096182664
50.5972094852373
50.5972094519873
50.597209478744
50.5972094813197
50.5972094846053
50.5972094793874
50.5972094780368
50.5972094758333
50.5972094684772
50.59720946212
50.5972094339316
50.5972093897124
50.5972093421337
50.5972093281986
50.5972093313322
50.5972093204517
50.5972093135418
50.5972093199607
50.5972093259037
50.5972093432089
50.5972093373473
50.5972092970084
50.5972093521027
50.5972094479545
50.5972094654705
50.5972094557576
50.5972094499283
50.5972094432887
50.5972094392464
50.5972094293845
50.5972095625799
50.5972103112518
50.5972136713661
50.5972285251631
50.5972905666709
50.5975353000476
50.5984682676326
50.6019767116724
3514.83820408867
31645.6488309996
31568.1325959817
3506.87348854792
50.493717855231
50.4920338512871
50.4915977751361
50.4914899835318
50.4914644446725
50.4914587288041
50.4914575355296
50.4914573245528
50.4914572704377
50.4914572582002
50.4914572784281
50.4914572880823
50.4914572969367
50.4914572999783
50.4914572983723
50.4914572992717
50.491457301946
50.4914573015105
50.4914572941879
50.4914572803067
50.4914572609999
50.4914572540227
50.4914572576951
50.4914572560484
50.4914572502219
50.4914572551078
50.4914572649206
50.4914572686185
50.4914572645276
50.4914572474302
50.4914572687225
50.4914573082529
50.4914573138365
50.4914573059168
50.4914572991336
50.4914572941564
50.491457288313
50.491457274779
50.4914573049421
50.4914576004797
50.4914589914906
50.4914651873588
50.4914916280233
50.4915994312252
50.4920302671827
50.4937178720228
3506.88403013929
31568.7594963849
31537.9775912
3503.91850956788
50.4545427163529
50.453907685996
50.4537437292937
50.4537036763252
50.453694197536
50.453692050772
50.4536915965025
50.453691518796
50.4536914994746
50.4536914955356
50.4536915049241
50.4536915106426
50.4536915155621
50.4536915175194
50.4536915163826
50.4536915166555
50.4536915188022
50.4536915187891
50.4536915167078
50.4536915125792
50.4536915049493
50.4536915031363
50.4536915052849
50.4536915044838
50.4536915014032
50.4536915029991
50.4536915074106
50.4536915080403
50.4536915060723
50.4536914999158
50.4536915063099
50.4536915186526
50.453691518716
50.4536915154236
50.4536915129917
50.4536915089901
50.4536915047272
50.4536915006029
50.453691503977
50.4536915985739
50.4536920782858
50.4536942254505
50.4537035023414
50.4537422082779
50.4539018741937
50.45453867305
3503.9230681288
31538.3292412655
31527.6035943163
3502.95618193912
50.4419897501065
50.4417834158147
50.4417295027127
50.44171637313
50.4417132659324
50.4417125554505
50.4417124032174
50.4417123774726
50.4417123711928
50.4417123699835
50.4417123733384
50.4417123754738
50.4417123771356
50.4417123774704
50.4417123765978
50.4417123762415
50.4417123767437
50.4417123762804
50.4417123752159
50.441712373561
50.4417123709061
50.4417123703587
50.4417123705207
50.4417123696783
50.4417123681419
50.4417123680467
50.4417123690933
50.4417123691121
50.4417123679121
50.4417123655131
50.4417123668783
50.4417123694606
50.4417123687185
50.4417123674387
50.441712366102
50.4417123638394
50.4417123611155
50.4417123591436
50.4417123590548
50.4417123864708
50.4417125349294
50.4417132034242
50.4417161053569
50.4417283828297
50.4417799572568
50.4419862843218
3502.95773695651
31527.7595217275
31524.3826510614
3502.6729554876
50.438329293124
50.4382689341072
50.4382528361633
50.4382489027218
50.4382479713888
50.4382477570071
50.438247710451
50.438247702188
50.4382477003487
50.4382477000605
50.4382477006484
50.4382477009913
50.4382477011076
50.4382477007151
50.4382476999443
50.4382476992946
50.4382476989398
50.4382476982357
50.4382476973156
50.4382476962827
50.4382476950582
50.4382476944325
50.438247693877
50.4382476930672
50.4382476920966
50.4382476913385
50.4382476910452
50.4382476906705
50.4382476897743
50.4382476885962
50.4382476883996
50.4382476884178
50.4382476876511
50.4382476868205
50.438247685934
50.4382476846945
50.4382476832267
50.4382476821532
50.4382476816949
50.4382476887404
50.4382477311451
50.4382479239237
50.4382487614091
50.4382523299293
50.4382674435393
50.4383275603689
3502.67339420445
31524.4414241604
31523.4614248749
3502.59603591309
50.4373409297941
50.4373246062374
50.4373201447632
50.4373190458639
50.4373187853569
50.4373187250662
50.4373187116431
50.4373187090245
50.4373187083283
50.4373187079156
50.4373187076631
50.4373187073207
50.43731870687
50.4373187062326
50.4373187054766
50.4373187047219
50.4373187040381
50.4373187032383
50.4373187023826
50.4373187015078
50.4373187005823
50.4373186998149
50.4373186990303
50.4373186981849
50.4373186973409
50.4373186965165
50.43731869585
50.4373186952109
50.4373186944264
50.4373186935926
50.4373186929758
50.4373186923984
50.4373186916719
50.4373186909665
50.4373186902555
50.4373186894405
50.4373186885612
50.4373186877981
50.4373186873063
50.437318688766
50.4373186998829
50.437318751978
50.4373189788399
50.4373199484968
50.4373240612103
50.4373402518202
3502.59613841362
31523.481053477
31523.2153429256
3502.5764996091
50.4370911603525
50.4370870066443
50.4370858421972
50.4370855520794
50.4370854830824
50.4370854669441
50.437085463129
50.4370854621537
50.4370854616379
50.4370854611247
50.4370854606201
50.4370854600546
50.4370854594253
50.4370854587161
50.4370854579556
50.4370854571712
50.437085456389
50.43708545557
50.4370854547273
50.4370854538753
50.4370854530139
50.4370854521873
50.4370854513513
50.4370854505073
50.4370854496846
50.4370854488706
50.4370854481035
50.4370854473591
50.4370854465952
50.4370854458365
50.4370854451329
50.4370854444509
50.4370854437596
50.4370854430933
50.4370854424473
50.437085441791
50.437085441134
50.4370854405263
50.4370854399983
50.4370854399499
50.4370854424427
50.437085455558
50.4370855136635
50.43708576287
50.4370868174961
50.4370909195992
3502.57651762282
31523.2213025251
31523.1535654035
3502.57184256668
50.4370320274247
50.4370310206243
50.4370307314337
50.4370306583309
50.4370306407758
50.4370306365036
50.4370306352812
50.4370306347251
50.4370306342337
50.4370306336948
50.437030633117
50.4370306324866
50.4370306318075
50.4370306310799
50.437030630317
50.4370306295274
50.4370306287236
50.4370306279012
50.4370306270623
50.437030626216
50.4370306253666
50.4370306245256
50.4370306236855
50.4370306228493
50.4370306220301
50.4370306212231
50.4370306204369
50.4370306196696
50.4370306189134
50.4370306181745
50.4370306174646
50.4370306167768
50.4370306161049
50.4370306154586
50.4370306148349
50.4370306142266
50.4370306136365
50.4370306130727
50.4370306125418
50.4370306121389
50.4370306123837
50.4370306152713
50.4370306292444
50.43703069013
50.4370309473519
50.437031936557
3502.57184317782
31523.1552344119
31523.1391839281
3502.5708287464
50.4370193484834
50.4370191139754
50.4370190450913
50.4370190273305
50.4370190229162
50.4370190216672
50.4370190211016
50.4370190206445
50.4370190201538
50.4370190196063
50.4370190190084
50.4370190183612
50.4370190176703
50.4370190169402
50.4370190161784
50.4370190153908
50.4370190145844
50.4370190137627
50.4370190129292
50.4370190120892
50.4370190112469
50.4370190104073
50.4370190095723
50.4370190087449
50.4370190079306
50.43701900713
50.4370190063461
50.4370190055801
50.4370190048326
50.4370190041055
50.4370190034019
50.4370190027213
50.4370190020626
50.4370190014287
50.437019000818
50.437019000229
50.4370189996619
50.4370189991173
50.4370189985962
50.4370189981201
50.4370189978137
50.4370189981502
50.4370190011238
50.4370190151623
50.437019075076
50.4370193038246
3502.57082675803
31523.1396140164
31523.1363963811
3502.57066537191
50.4370174477403
50.4370173949078
50.4370173790464
50.4370173747942
50.4370173735917
50.4370173730748
50.4370173726637
50.4370173722261
50.4370173717324
50.4370173711814
50.4370173705783
50.4370173699279
50.4370173692358
50.4370173685075
50.4370173677491
50.4370173669656
50.4370173661627
50.4370173653454
50.4370173645177
50.4370173636842
50.437017362849
50.437017362016
50.4370173611884
50.4370173603692
50.4370173595622
50.4370173587692
50.4370173579927
50.4370173572344
50.4370173564959
50.4370173557785
50.4370173550841
50.4370173544128
50.4370173537649
50.4370173531416
50.4370173525422
50.4370173519661
50.4370173514131
50.4370173508824
50.4370173503738
50.4370173498918
50.4370173494647
50.4370173492011
50.4370173495564
50.4370173524425
50.4370173656689
50.4370174165477
3502.57066330918
31523.1364921788
31523.1363267747
3502.57069265067
50.4370179443228
50.4370179327417
50.4370179291517
50.4370179280664
50.4370179276135
50.4370179272617
50.437017926881
50.437017926444
50.4370179259471
50.437017925394
50.4370179247898
50.4370179241397
50.4370179234495
50.4370179227244
50.4370179219701
50.4370179211917
50.4370179203944
50.4370179195831
50.4370179187621
50.4370179179357
50.4370179171081
50.4370179162829
50.4370179154634
50.4370179146529
50.4370179138543
50.4370179130701
50.4370179123023
50.4370179115531
50.4370179108241
50.4370179101166
50.4370179094319
50.4370179087708
50.4370179081336
50.4370179075211
50.4370179069329
50.4370179063688
50.4370179058283
50.4370179053108
50.4370179048157
50.4370179043437
50.4370179039008
50.4370179035116
50.4370179032779
50.4370179036209
50.4370179062338
50.4370179170314
3502.57069073344
31523.1363373864
31523.1368713705
3502.57076121191
50.4370189549033
50.4370189524005
50.437018951546
50.4370189511698
50.4370189508789
50.4370189505572
50.4370189501778
50.437018949737
50.437018949237
50.4370189486825
50.4370189480782
50.4370189474297
50.4370189467421
50.4370189460209
50.4370189452714
50.4370189444986
50.4370189437076
50.437018942903
50.4370189420893
50.4370189412707
50.4370189404512
50.4370189396344
50.4370189388237
50.4370189380222
50.4370189372328
50.4370189364579
50.4370189356997
50.4370189349603
50.4370189342413
50.437018933544
50.4370189328697
50.4370189322192
50.4370189315931
50.4370189309918
50.4370189304152
50.4370189298633
50.4370189293356
50.4370189288315
50.4370189283505
50.4370189278924
50.4370189274586
50.4370189270549
50.4370189267047
50.4370189264997
50.4370189267957
50.4370189288621
3502.57075938084
31523.1368613863
31523.1375503804
3502.57083844556
50.4370200721808
50.437020071613
50.4370200713393
50.4370200711085
50.4370200708442
50.4370200705218
50.4370200701371
50.4370200696916
50.4370200691888
50.4370200686332
50.4370200680294
50.4370200673827
50.4370200666983
50.4370200659814
50.4370200652371
50.4370200644703
50.4370200636859
50.4370200628886
50.4370200620827
50.4370200612723
50.4370200604614
50.4370200596536
50.4370200588521
50.4370200580602
50.4370200572804
50.4370200565154
50.4370200557673
50.4370200550382
50.4370200543296
50.4370200536431
50.4370200529797
50.4370200523404
50.4370200517257
50.4370200511362
50.4370200505718
50.4370200500325
50.437020049518
50.4370200490277
50.4370200485613
50.4370200481184
50.4370200476995
50.4370200473065
50.4370200469459
50.4370200466389
50.4370200464584
50.4370200466905
3502.57083665911
31523.1375357312
31523.1382579727
3502.57091745187
50.4370212109627
50.4370212107868
50.4370212106227
50.4370212104123
50.4370212101447
50.4370212098151
50.4370212094239
50.4370212089738
50.4370212084683
50.4370212079117
50.4370212073087
50.4370212066643
50.4370212059833
50.437021205271
50.4370212045321
50.4370212037717
50.4370212029944
50.4370212022047
50.437021201407
50.4370212006053
50.4370211998035
50.437021199005
50.4370211982132
50.4370211974312
50.4370211966615
50.4370211959069
50.4370211951695
50.4370211944511
50.4370211937535
50.4370211930781
50.4370211924262
50.4370211917985
50.4370211911958
50.4370211906185
50.4370211900668
50.4370211895406
50.4370211890397
50.4370211885637
50.4370211881123
50.4370211876852
50.4370211872826
50.4370211869059
50.4370211865579
50.4370211862452
50.437021185983
50.4370211858527
3502.57091569465
31523.1382424274
31523.1389714767
3502.57099681039
50.4370223539458
50.4370223538374
50.4370223536834
50.4370223534669
50.4370223531901
50.437022352852
50.4370223524543
50.4370223519998
50.4370223514919
50.4370223509347
50.4370223503327
50.4370223496906
50.4370223490134
50.4370223483059
50.4370223475729
50.4370223468191
50.4370223460492
50.4370223452675
50.4370223444784
50.4370223436857
50.4370223428932
50.4370223421045
50.4370223413228
50.4370223405511
50.4370223397921
50.4370223390483
50.4370223383218
50.4370223376147
50.4370223369285
50.4370223362647
50.4370223356246
50.437022335009
50.4370223344187
50.4370223338541
50.4370223333155
50.4370223328028
50.437022332316
50.4370223318547
50.4370223314186
50.4370223310076
50.437022330622
50.4370223302627
50.4370223299321
50.4370223296336
50.4370223293715
50.4370223291837
3502.57099507837
31523.1389559013
31523.1396861616
3502.57107623583
50.4370234977084
50.4370234976016
50.4370234974379
50.4370234972104
50.4370234969235
50.437023496577
50.4370234961731
50.4370234957144
50.4370234952042
50.4370234946466
50.4370234940458
50.4370234934065
50.4370234927332
50.4370234920307
50.4370234913038
50.4370234905569
50.4370234897947
50.4370234890214
50.437023488241
50.4370234874577
50.437023486675
50.4370234858965
50.4370234851252
50.4370234843642
50.4370234836161
50.4370234828835
50.4370234821684
50.4370234814729
50.4370234807985
50.4370234801468
50.4370234795189
50.4370234789158
50.4370234783382
50.4370234777868
50.4370234772616
50.4370234767629
50.4370234762905
50.4370234758442
50.4370234754238
50.4370234750292
50.4370234746607
50.4370234743192
50.4370234740068
50.4370234737263
50.4370234734801
50.4370234732958
3502.57107452844
31523.1396707554
31523.1404010648
3502.57115567229
50.4370246415919
50.4370246414743
50.4370246412978
50.4370246410589
50.437024640762
50.4370246404076
50.4370246399977
50.437024639535
50.4370246390228
50.437024638465
50.4370246378656
50.4370246372291
50.43702463656
50.4370246358628
50.4370246351422
50.4370246344025
50.4370246336482
50.4370246328835
50.4370246321123
50.4370246313386
50.437024630566
50.4370246297978
50.4370246290373
50.4370246282874
50.4370246275506
50.4370246268295
50.4370246261262
50.4370246254426
50.4370246247803
50.437024624141
50.4370246235257
50.4370246229354
50.437024622371
50.437024621833
50.4370246213217
50.4370246208372
50.4370246203795
50.4370246199486
50.4370246195441
50.4370246191661
50.4370246188149
50.4370246184914
50.4370246181973
50.4370246179352
50.4370246177074
50.437024617538
3502.57115398996
31523.140385871
31523.1411159961
3502.57123510925
50.4370257854755
50.4370257853453
50.4370257851561
50.4370257849062
50.4370257845998
50.4370257842377
50.4370257838222
50.4370257833558
50.4370257828418
50.4370257822839
50.4370257816861
50.4370257810526
50.4370257803879
50.4370257796962
50.437025778982
50.4370257782497
50.4370257775036
50.4370257767476
50.4370257759859
50.4370257752221
50.4370257744598
50.4370257737024
50.4370257729529
50.4370257722142
50.4370257714891
50.4370257707798
50.4370257700884
50.4370257694171
50.4370257687673
50.4370257681406
50.4370257675382
50.4370257669612
50.4370257664102
50.4370257658859
50.4370257653887
50.4370257649188
50.4370257644761
50.4370257640607
50.4370257636725
50.4370257633113
50.4370257629774
50.4370257626718
50.437025762396
50.4370257621522
50.4370257619427
50.4370257617897
3502.57123345272
31523.141101033
31523.1418309208
3502.57131454498
50.4370269293402
50.4370269291979
50.4370269289966
50.4370269287361
50.4370269284206
50.4370269280512
50.4370269276303
50.4370269271604
50.4370269266448
50.437026926087
50.437026925491
50.4370269248607
50.4370269242004
50.4370269235144
50.4370269228069
50.4370269220822
50.4370269213443
50.4370269205974
50.4370269198453
50.4370269190916
50.4370269183398
50.4370269175933
50.4370269168551
50.437026916128
50.4370269154146
50.4370269147173
50.4370269140383
50.4370269133795
50.4370269127424
50.4370269121286
50.4370269115394
50.4370269109757
50.4370269104385
50.4370269099282
50.4370269094454
50.4370269089902
50.4370269085629
50.4370269081633
50.4370269077914
50.4370269074471
50.4370269071308
50.4370269068431
50.4370269065854
50.4370269063596
50.4370269061681
50.4370269060313
3502.57131291472
31523.1418161935
31523.1425458346
3502.57139397943
50.4370280731867
50.4370280730326
50.4370280728199
50.4370280725493
50.4370280722252
50.4370280718488
50.4370280714226
50.4370280709495
50.4370280704324
50.4370280698749
50.4370280692807
50.4370280686537
50.437028067998
50.4370280673178
50.4370280666171
50.4370280659001
50.4370280651707
50.4370280644329
50.4370280636905
50.4370280629471
50.4370280622061
50.4370280614706
50.4370280607439
50.4370280600285
50.4370280593272
50.4370280586422
50.4370280579756
50.4370280573294
50.4370280567053
50.4370280561047
50.4370280555288
50.4370280549788
50.4370280544554
50.4370280539594
50.4370280534911
50.437028053051
50.4370280526391
50.4370280522554
50.4370280519
50.4370280515728
50.4370280512741
50.4370280510043
50.4370280507647
50.4370280505567
50.4370280503828
50.4370280502618
3502.57139237602
31523.1425313514
31523.1432607393
3502.57147341285
50.4370292170187
50.4370292168533
50.4370292166297
50.4370292163495
50.4370292160169
50.4370292156338
50.4370292152027
50.4370292147263
50.4370292142079
50.4370292136508
50.4370292130586
50.437029212435
50.4370292117841
50.4370292111096
50.4370292104159
50.4370292097066
50.4370292089859
50.4370292082574
50.4370292075248
50.4370292067918
50.4370292060616
50.4370292053374
50.4370292046222
50.4370292039187
50.4370292032295
50.4370292025569
50.437029201903
50.4370292012697
50.4370292006586
50.4370292000713
50.437029199509
50.4370291989727
50.4370291984634
50.4370291979818
50.4370291975282
50.4370291971033
50.4370291967069
50.4370291963394
50.4370291960006
50.4370291956906
50.4370291954094
50.4370291951576
50.437029194936
50.4370291947456
50.4370291945889
50.4370291944833
3502.57147183661
31523.1432465005
31523.1439756376
3502.57155284557
50.4370303608408
50.4370303606646
50.4370303604303
50.4370303601409
50.4370303598002
50.4370303594105
50.4370303589745
50.4370303584952
50.4370303579755
50.4370303574189
50.4370303568286
50.4370303562085
50.4370303555624
50.4370303548939
50.4370303542071
50.4370303535057
50.4370303527936
50.4370303520744
50.4370303513519
50.4370303506293
50.43703034991
50.4370303491971
50.4370303484936
50.4370303478021
50.4370303471252
50.4370303464651
50.4370303458239
50.4370303452036
50.4370303446057
50.4370303440318
50.4370303434831
50.4370303429608
50.4370303424656
50.4370303419985
50.4370303415598
50.43703034115
50.4370303407694
50.437030340418
50.437030340096
50.4370303398032
50.4370303395397
50.4370303393058
50.4370303391021
50.4370303389291
50.4370303387894
50.4370303386991
3502.57155129683
31523.1439616468
31523.1446905323
3502.5716322779
50.4370315046575
50.4370315044708
50.4370315042263
50.4370315039277
50.4370315035792
50.437031503183
50.4370315027424
50.4370315022601
50.4370315017393
50.4370315011831
50.437031500595
50.4370314999784
50.437031499337
50.4370314986745
50.4370314979947
50.4370314973011
50.4370314965977
50.437031495888
50.4370314951754
50.4370314944633
50.437031493755
50.4370314930535
50.4370314923617
50.4370314916822
50.4370314910176
50.43703149037
50.4370314897417
50.4370314891344
50.4370314885497
50.4370314879893
50.4370314874543
50.437031486946
50.4370314864651
50.4370314860125
50.4370314855887
50.4370314851943
50.4370314848294
50.4370314844943
50.437031484189
50.4370314839134
50.4370314836676
50.4370314834516
50.4370314832658
50.4370314831102
50.4370314829875
50.4370314829121
3502.57163075684
31523.1446767924
31523.1454054264
3502.57171171018
50.4370326484738
50.4370326482766
50.437032648022
50.4370326477145
50.4370326473582
50.4370326469557
50.4370326465105
50.4370326460253
50.4370326455034
50.4370326449477
50.4370326443616
50.4370326437485
50.437032643112
50.4370326424554
50.4370326417825
50.4370326410969
50.4370326404022
50.4370326397018
50.4370326389992
50.4370326382976
50.4370326376003
50.4370326369101
50.43703263623
50.4370326355626
50.4370326349103
50.4370326342753
50.4370326336598
50.4370326330655
50.4370326324941
50.4370326319472
50.437032631426
50.4370326309316
50.4370326304649
50.4370326300269
50.4370326296181
50.437032629239
50.4370326288899
50.437032628571
50.4370326282825
50.4370326280242
50.4370326277961
50.437032627598
50.43703262743
50.4370326272919
50.4370326271859
50.4370326271255
3502.57171021687
31523.1453919348
31523.146120323
3502.57179114273
50.437033792294
50.4370337920865
50.4370337918219
50.4370337915056
50.4370337911415
50.4370337907328
50.4370337902829
50.4370337897949
50.4370337892718
50.4370337887167
50.4370337881327
50.4370337875231
50.4370337868913
50.4370337862406
50.4370337855747
50.4370337848969
50.4370337842108
50.4370337835198
50.4370337828271
50.437033782136
50.4370337814496
50.4370337807707
50.4370337801023
50.4370337794469
50.4370337788068
50.4370337781844
50.4370337775816
50.4370337770004
50.4370337764422
50.4370337759087
50.4370337754012
50.4370337749207
50.4370337744683
50.4370337740448
50.4370337736509
50.4370337732871
50.4370337729538
50.4370337726512
50.4370337723794
50.4370337721384
50.437033771928
50.4370337717479
50.4370337715977
50.4370337714769
50.4370337713877
50.4370337713422
3502.5717896771
31523.1461070826
31523.1468352251
3502.57187057589
50.4370349361229
50.437034935905
50.4370349356303
50.4370349353052
50.4370349349334
50.4370349345185
50.437034934064
50.4370349335731
50.4370349330489
50.4370349324942
50.4370349319122
50.4370349313061
50.4370349306789
50.4370349300342
50.4370349293751
50.4370349287051
50.4370349280275
50.4370349273457
50.4370349266628
50.4370349259821
50.4370349253065
50.4370349246389
50.4370349239821
50.4370349233386
50.4370349227107
50.4370349221007
50.4370349215107
50.4370349209423
50.4370349203973
50.4370349198772
50.4370349193832
50.4370349189166
50.4370349184784
50.4370349180694
50.4370349176903
50.4370349173418
50.4370349170242
50.4370349167377
50.4370349164827
50.4370349162589
50.4370349160661
50.437034915904
50.4370349157717
50.4370349156683
50.4370349155959
50.4370349155656
3502.57186913787
31523.1468222335
31523.1475501354
3502.57195000997
50.4370360799648
50.4370360797366
50.4370360794517
50.4370360791177
50.4370360787381
50.4370360783168
50.4370360778577
50.4370360773639
50.4370360768385
50.4370360762842
50.4370360757042
50.4370360751014
50.4370360744788
50.4370360738398
50.4370360731875
50.4370360725251
50.437036071856
50.4370360711833
50.4370360705101
50.4370360698397
50.4370360691748
50.4370360685183
50.4370360678729
50.4370360672412
50.4370360666254
50.4370360660277
50.4370360654502
50.4370360648945
50.4370360643626
50.4370360638557
50.4370360633752
50.4370360629224
50.4370360624982
50.4370360621036
50.4370360617392
50.4370360614058
50.4370360611038
50.4370360608335
50.437036060595
50.4370360603884
50.4370360602133
50.437036060069
50.4370360599547
50.4370360598688
50.4370360598135
50.4370360597983
3502.57194859926
31523.1475373915
31523.148265057
3502.57202944528
50.4370372238245
50.4370372235856
50.4370372232903
50.4370372229471
50.4370372225597
50.4370372221321
50.4370372216682
50.4370372211715
50.4370372206447
50.4370372200908
50.4370372195126
50.437037218913
50.4370372182949
50.4370372176615
50.4370372170158
50.4370372163609
50.4370372157001
50.4370372150363
50.4370372143728
50.4370372137124
50.437037213058
50.4370372124125
50.4370372117784
50.4370372111582
50.4370372105543
50.4370372099688
50.4370372094036
50.4370372088606
50.4370372083414
50.4370372078477
50.4370372073805
50.4370372069412
50.4370372065309
50.4370372061504
50.4370372058006
50.4370372054822
50.4370372051956
50.4370372049413
50.4370372047195
50.4370372045299
50.4370372043724
50.437037204246
50.4370372041497
50.4370372040814
50.4370372040433
50.4370372040435
3502.57202806158
31523.1482525564
31523.1489799927
3502.57210888215
50.4370383677063
50.4370383674563
50.4370383671502
50.4370383667978
50.4370383664023
50.4370383659681
50.4370383654994
50.4370383649996
50.4370383644714
50.4370383639177
50.4370383633412
50.4370383627447
50.437038362131
50.437038361503
50.4370383608638
50.4370383602162
50.4370383595635
50.4370383589085
50.4370383582543
50.4370383576038
50.4370383569598
50.437038356325
50.437038355702
50.4370383550932
50.4370383545009
50.4370383539273
50.4370383533742
50.4370383528436
50.437038352337
50.4370383518561
50.437038351402
50.4370383509761
50.4370383505793
50.4370383502129
50.4370383498774
50.4370383495737
50.4370383493025
50.437038349064
50.4370383488585
50.437038348686
50.437038348546
50.4370383484375
50.4370383483592
50.4370383483088
50.4370383482883
50.4370383483043
3502.5721075249
31523.1489677313
31523.1496949454
3502.57218832088
50.4370395116146
50.437039511353
50.4370395110357
50.4370395106736
50.4370395102698
50.437039509829
50.4370395093553
50.4370395088522
50.4370395083225
50.4370395077689
50.437039507194
50.4370395066004
50.4370395059908
50.4370395053682
50.4370395047352
50.4370395040947
50.4370395034499
50.4370395028034
50.4370395021584
50.4370395015175
50.4370395008835
50.4370395002592
50.437039499647
50.4370394990493
50.4370394984685
50.4370394979065
50.4370394973653
50.4370394968468
50.4370394963526
50.4370394958842
50.4370394954429
50.43703949503
50.4370394946467
50.4370394942939
50.4370394939726
50.4370394936834
50.4370394934272
50.4370394932043
50.437039493015
50.4370394928594
50.4370394927368
50.4370394926463
50.4370394925861
50.4370394925537
50.4370394925512
50.4370394925834
3502.57218698953
31523.1496829159
31523.1504099179
3502.57226776179
50.4370406555538
50.4370406552799
50.4370406549506
50.4370406545786
50.4370406541662
50.4370406537185
50.4370406532396
50.4370406527332
50.4370406522018
50.437040651648
50.4370406510745
50.4370406504837
50.4370406498781
50.4370406492605
50.4370406486336
50.437040648
50.4370406473628
50.4370406467247
50.4370406460885
50.437040645457
50.4370406448328
50.4370406442186
50.437040643617
50.4370406430302
50.4370406424603
50.4370406419097
50.4370406413801
50.4370406408734
50.4370406403912
50.437040639935
50.4370406395062
50.4370406391061
50.4370406387358
50.4370406383964
50.4370406380889
50.437040637814
50.4370406375725
50.437040637365
50.4370406371918
50.4370406370528
50.4370406369476
50.4370406368749
50.437040636833
50.4370406368188
50.4370406368349
50.437040636884
3502.57226645575
31523.1503981177
31523.1511249131
3502.57234720519
50.4370417995281
50.4370417992409
50.4370417988989
50.4370417985164
50.4370417980951
50.4370417976403
50.4370417971562
50.4370417966461
50.4370417961128
50.4370417955588
50.4370417949865
50.4370417943983
50.4370417937965
50.4370417931837
50.4370417925626
50.4370417919357
50.4370417913059
50.4370417906757
50.4370417900481
50.4370417894257
50.437041788811
50.4370417882067
50.4370417876152
50.4370417870388
50.4370417864798
50.4370417859401
50.4370417854217
50.4370417849265
50.4370417844559
50.4370417840116
50.4370417835949
50.4370417832072
50.4370417828496
50.4370417825233
50.4370417822292
50.4370417819682
50.4370417817412
50.4370417815487
50.4370417813913
50.4370417812688
50.4370417811808
50.437041781126
50.4370417811024
50.4370417811067
50.437041781142
50.4370417812088
3502.57234592371
31523.1511133353
31523.1518399338
3502.57242665137
50.4370429435417
50.43704294324
50.4370429428843
50.4370429424908
50.4370429420603
50.4370429415981
50.4370429411084
50.4370429405946
50.4370429400593
50.4370429395048
50.4370429389336
50.4370429383477
50.4370429377495
50.4370429371413
50.4370429365257
50.4370429359052
50.4370429352824
50.43704293466
50.4370429340406
50.4370429334269
50.4370429328214
50.4370429322266
50.4370429316449
50.4370429310786
50.43704293053
50.4370429300009
50.4370429294933
50.4370429290091
50.4370429285498
50.4370429281169
50.437042927712
50.4370429273363
50.437042926991
50.4370429266772
50.4370429263961