/*--------------------------------*- C++ -*----------------------------------*\
  =========                 |
  \\      /  F ield         | OpenFOAM: The Open Source CFD Toolbox
   \\    /   O peration     | Website:  https://openfoam.org
    \\  /    A nd           | Version:  10
     \\/     M anipulation  |
\*---------------------------------------------------------------------------*/
FoamFile
{
    format      ascii;
    class       volScalarField;
    location    "1.8";
    object      p;
}
// * * * * * * * * * * * * * * * * * * * * * * * * * * * * * * * * * * * * * //

dimensions      [1 -1 -2 0 0 0 0];

internalField   nonuniform List<scalar> 
2500
(
100059.832481261
100059.832482919
100059.832483823
100059.832484308
100059.832484769
100059.832485195
100059.832485628
100059.832486122
100059.832486684
100059.832487316
100059.832488017
100059.832488781
100059.832489603
100059.832490477
100059.832491396
100059.832492354
100059.832493346
100059.832494364
100059.832495402
100059.832496456
100059.832497519
100059.832498587
100059.832499654
100059.832500716
100059.832501769
100059.832502808
100059.832503831
100059.832504834
100059.832505814
100059.832506767
100059.832507693
100059.832508587
100059.83250945
100059.832510278
100059.832511072
100059.832511828
100059.832512548
100059.83251323
100059.832513873
100059.832514478
100059.832515043
100059.832515567
100059.832516046
100059.832516472
100059.832516833
100059.832517072
100059.832517135
100059.832517021
100059.832516318
100059.832514725
100059.830247906
100059.830249314
100059.830250395
100059.83025065
100059.830251005
100059.830251376
100059.83025179
100059.830252279
100059.83025284
100059.830253473
100059.830254174
100059.830254938
100059.83025576
100059.830256634
100059.830257553
100059.830258512
100059.830259503
100059.83026052
100059.830261558
100059.830262612
100059.830263674
100059.830264741
100059.830265808
100059.830266869
100059.830267922
100059.830268961
100059.830269983
100059.830270985
100059.830271964
100059.830272917
100059.830273841
100059.830274735
100059.830275597
100059.830276425
100059.830277217
100059.830277973
100059.830278692
100059.830279373
100059.830280015
100059.830280619
100059.830281183
100059.830281706
100059.830282186
100059.830282617
100059.830282998
100059.830283292
100059.830283456
100059.830283567
100059.830282701
100059.830281288
100059.827980401
100059.827980428
100059.827980329
100059.827980241
100059.827980488
100059.827980823
100059.827981224
100059.827981711
100059.827982272
100059.827982905
100059.827983607
100059.827984371
100059.827985194
100059.827986067
100059.827986986
100059.827987944
100059.827988935
100059.827989951
100059.827990989
100059.827992041
100059.827993103
100059.827994169
100059.827995234
100059.827996294
100059.827997345
100059.827998383
100059.827999404
100059.828000405
100059.828001382
100059.828002334
100059.828003257
100059.82800415
100059.82800501
100059.828005836
100059.828006627
100059.828007381
100059.828008098
100059.828008778
100059.828009418
100059.82801002
100059.828010583
100059.828011104
100059.828011584
100059.828012017
100059.828012411
100059.828012744
100059.828013021
100059.828013482
100059.828013808
100059.82801379
100059.825706623
100059.825706109
100059.825705818
100059.825705685
100059.825705931
100059.825706269
100059.825706672
100059.825707159
100059.825707721
100059.825708355
100059.825709056
100059.825709821
100059.825710643
100059.825711516
100059.825712434
100059.825713391
100059.82571438
100059.825715395
100059.825716431
100059.825717481
100059.825718541
100059.825719605
100059.825720668
100059.825721727
100059.825722776
100059.825723811
100059.82572483
100059.825725828
100059.825726803
100059.825727753
100059.825728673
100059.825729564
100059.825730421
100059.825731245
100059.825732034
100059.825732785
100059.8257335
100059.825734176
100059.825734814
100059.825735414
100059.825735974
100059.825736493
100059.82573697
100059.825737403
100059.825737794
100059.825738126
100059.825738409
100059.825738925
100059.825739437
100059.825740019
100059.82342934
100059.823428865
100059.823428665
100059.823428538
100059.823428779
100059.823429116
100059.82342952
100059.823430006
100059.823430568
100059.823431201
100059.823431903
100059.823432667
100059.823433488
100059.823434359
100059.823435276
100059.823436231
100059.823437217
100059.82343823
100059.823439263
100059.823440311
100059.823441368
100059.823442429
100059.823443489
100059.823444544
100059.82344559
100059.823446622
100059.823447638
100059.823448633
100059.823449605
100059.82345055
100059.823451468
100059.823452355
100059.823453209
100059.82345403
100059.823454815
100059.823455563
100059.823456274
100059.823456947
100059.823457582
100059.823458178
100059.823458735
100059.823459251
100059.823459727
100059.823460158
100059.82346055
100059.823460882
100059.823461171
100059.823461691
100059.823462105
100059.823462682
100059.821150571
100059.821150214
100059.821150077
100059.821149967
100059.821150201
100059.821150535
100059.821150937
100059.821151423
100059.821151984
100059.821152617
100059.821153317
100059.82115408
100059.8211549
100059.821155769
100059.821156683
100059.821157635
100059.821158619
100059.821159629
100059.821160658
100059.821161702
100059.821162756
100059.821163813
100059.821164869
100059.82116592
100059.821166962
100059.82116799
100059.821169001
100059.821169992
100059.821170959
100059.821171901
100059.821172814
100059.821173697
100059.821174547
100059.821175364
100059.821176144
100059.821176889
100059.821177595
100059.821178264
100059.821178895
100059.821179487
100059.82118004
100059.821180553
100059.821181026
100059.821181457
100059.821181848
100059.821182183
100059.821182482
100059.821182988
100059.821183336
100059.821183806
100059.818871425
100059.81887116
100059.818871068
100059.818870989
100059.818871214
100059.818871546
100059.818871947
100059.818872432
100059.818872992
100059.818873624
100059.818874324
100059.818875085
100059.818875902
100059.818876769
100059.81887768
100059.818878629
100059.818879609
100059.818880614
100059.818881639
100059.818882679
100059.818883727
100059.81888478
100059.818885831
100059.818886877
100059.818887914
100059.818888937
100059.818889943
100059.818890929
100059.818891892
100059.818892828
100059.818893736
100059.818894614
100059.818895459
100059.818896271
100059.818897046
100059.818897786
100059.818898488
100059.818899152
100059.818899777
100059.818900365
100059.818900913
100059.818901423
100059.818901893
100059.818902322
100059.818902713
100059.818903049
100059.818903359
100059.818903836
100059.818904136
100059.818904514
100059.81659227
100059.81659207
100059.816592013
100059.81659197
100059.816592188
100059.816592519
100059.81659292
100059.816593404
100059.816593963
100059.816594594
100059.816595292
100059.816596051
100059.816596865
100059.816597729
100059.816598637
100059.816599581
100059.816600556
100059.816601557
100059.816602577
100059.816603612
100059.816604655
100059.816605702
100059.816606747
100059.816607788
100059.816608818
100059.816609836
100059.816610836
100059.816611816
100059.816612773
100059.816613704
100059.816614606
100059.816615478
100059.816616317
100059.816617123
100059.816617893
100059.816618627
100059.816619323
100059.816619981
100059.816620602
100059.816621184
100059.816621727
100059.816622232
100059.816622699
100059.816623125
100059.816623513
100059.81662385
100059.816624168
100059.816624608
100059.816624874
100059.816625181
100059.814313184
100059.814313033
100059.814313002
100059.814312994
100059.814313208
100059.814313538
100059.81431394
100059.814314423
100059.814314981
100059.814315611
100059.814316307
100059.814317063
100059.814317875
100059.814318735
100059.814319638
100059.814320577
100059.814321548
100059.814322543
100059.814323558
100059.814324586
100059.814325623
100059.814326663
100059.814327702
100059.814328736
100059.81432976
100059.814330771
100059.814331765
100059.814332738
100059.814333688
100059.814334612
100059.814335508
100059.814336374
100059.814337207
100059.814338006
100059.814338769
100059.814339497
100059.814340187
100059.814340839
100059.814341454
100059.81434203
100059.814342568
100059.814343067
100059.814343529
100059.814343952
100059.814344336
100059.814344672
100059.814344994
100059.814345397
100059.814345638
100059.814345893
100059.812034177
100059.812034062
100059.812034049
100059.812034075
100059.812034289
100059.812034617
100059.81203502
100059.812035503
100059.812036061
100059.812036689
100059.812037383
100059.812038136
100059.812038944
100059.8120398
100059.812040698
100059.812041632
100059.812042597
100059.812043586
100059.812044594
100059.812045615
100059.812046645
100059.812047679
100059.812048711
100059.812049738
100059.812050754
100059.812051758
100059.812052744
100059.81205371
100059.812054653
100059.81205557
100059.812056459
100059.812057317
100059.812058143
100059.812058935
100059.812059691
100059.812060412
100059.812061095
100059.81206174
100059.812062348
100059.812062918
100059.812063449
100059.812063943
100059.812064399
100059.812064817
100059.812065197
100059.81206553
100059.812065852
100059.81206622
100059.812066443
100059.812066658
100059.809755243
100059.809755157
100059.809755158
100059.809755213
100059.80975543
100059.809755758
100059.809756162
100059.809756645
100059.809757202
100059.809757829
100059.80975852
100059.80975927
100059.809760074
100059.809760925
100059.809761817
100059.809762746
100059.809763704
100059.809764686
100059.809765687
100059.809766701
100059.809767724
100059.809768749
100059.809769774
100059.809770792
100059.809771801
100059.809772797
100059.809773775
100059.809774733
100059.809775668
100059.809776577
100059.809777458
100059.809778308
100059.809779126
100059.80977991
100059.809780659
100059.809781372
100059.809782048
100059.809782686
100059.809783287
100059.809783849
100059.809784374
100059.809784861
100059.809785311
100059.809785723
100059.809786097
100059.809786427
100059.809786745
100059.80978708
100059.80978729
100059.809787473
100059.807476375
100059.807476313
100059.807476327
100059.807476406
100059.807476628
100059.807476958
100059.807477363
100059.807477846
100059.807478402
100059.807479027
100059.807479715
100059.807480461
100059.80748126
100059.807482106
100059.807482993
100059.807483915
100059.807484866
100059.807485841
100059.807486834
100059.80748784
100059.807488855
100059.807489872
100059.807490888
100059.807491898
100059.807492898
100059.807493885
100059.807494855
100059.807495804
100059.80749673
100059.807497631
100059.807498503
100059.807499345
100059.807500155
100059.807500931
100059.807501672
100059.807502376
100059.807503044
100059.807503674
100059.807504267
100059.807504822
100059.807505339
100059.807505819
100059.807506262
100059.807506667
100059.807507035
100059.807507359
100059.80750767
100059.807507978
100059.807508175
100059.807508334
100059.805197571
100059.805197527
100059.805197552
100059.805197652
100059.80519788
100059.805198212
100059.805198619
100059.805199102
100059.805199657
100059.80520028
100059.805200965
100059.805201707
100059.805202501
100059.805203341
100059.805204221
100059.805205136
100059.80520608
100059.805207047
100059.805208032
100059.80520903
100059.805210035
100059.805211043
100059.80521205
100059.805213051
100059.805214042
100059.80521502
100059.80521598
100059.80521692
100059.805217837
100059.805218729
100059.805219592
100059.805220425
100059.805221226
100059.805221993
100059.805222725
100059.805223421
100059.805224081
100059.805224703
100059.805225287
100059.805225833
100059.805226342
100059.805226814
100059.80522725
100059.805227648
100059.805228008
100059.805228326
100059.805228628
100059.805228912
100059.805229097
100059.805229235
100059.802918823
100059.802918794
100059.80291883
100059.802918947
100059.802919183
100059.802919517
100059.802919925
100059.802920409
100059.802920963
100059.802921583
100059.802922265
100059.802923002
100059.802923791
100059.802924625
100059.802925498
100059.802926406
100059.802927342
100059.8029283
100059.802929276
100059.802930265
100059.802931261
100059.80293226
100059.802933257
100059.802934249
100059.80293523
100059.802936198
100059.802937148
100059.802938079
100059.802938986
100059.802939868
100059.802940721
100059.802941545
100059.802942336
100059.802943094
100059.802943817
100059.802944504
100059.802945154
100059.802945767
100059.802946343
100059.802946881
100059.802947381
100059.802947845
100059.802948272
100059.802948662
100059.802949014
100059.802949325
100059.802949616
100059.802949878
100059.802950053
100059.802950174
100059.800640127
100059.800640111
100059.800640157
100059.80064029
100059.800640533
100059.800640869
100059.800641279
100059.800641763
100059.800642315
100059.800642933
100059.800643611
100059.800644344
100059.800645127
100059.800645955
100059.800646821
100059.800647721
100059.800648648
100059.800649598
100059.800650565
100059.800651544
100059.80065253
100059.800653519
100059.800654506
100059.800655487
100059.800656458
100059.800657415
100059.800658356
100059.800659276
100059.800660173
100059.800661044
100059.800661888
100059.800662701
100059.800663483
100059.800664231
100059.800664945
100059.800665622
100059.800666263
100059.800666866
100059.800667433
100059.800667961
100059.800668453
100059.800668908
100059.800669325
100059.800669706
100059.80067005
100059.800670353
100059.800670632
100059.800670876
100059.800671039
100059.800671147
100059.798361478
100059.798361474
100059.798361529
100059.798361675
100059.798361925
100059.798362264
100059.798362676
100059.79836316
100059.798363711
100059.798364326
100059.798365
100059.798365728
100059.798366505
100059.798367326
100059.798368184
100059.798369076
100059.798369994
100059.798370935
100059.798371892
100059.798372861
100059.798373837
100059.798374816
100059.798375792
100059.798376762
100059.798377723
100059.798378669
100059.798379599
100059.798380508
100059.798381395
100059.798382255
100059.798383088
100059.798383891
100059.798384663
100059.798385401
100059.798386104
100059.798386771
100059.798387402
100059.798387996
100059.798388553
100059.798389072
100059.798389554
100059.798389999
100059.798390408
100059.798390779
100059.798391113
100059.798391407
100059.798391674
100059.798391902
100059.798392054
100059.79839215
100059.796082873
100059.796082877
100059.796082942
100059.796083099
100059.796083357
100059.796083699
100059.796084112
100059.796084596
100059.796085146
100059.796085758
100059.796086428
100059.796087151
100059.796087921
100059.796088735
100059.796089585
100059.796090468
100059.796091377
100059.796092308
100059.796093255
100059.796094214
100059.796095179
100059.796096147
100059.796097112
100059.796098071
100059.79609902
100059.796099956
100059.796100874
100059.796101772
100059.796102648
100059.796103498
100059.79610432
100059.796105112
100059.796105872
100059.7961066
100059.796107292
100059.796107949
100059.79610857
100059.796109154
100059.7961097
100059.79611021
100059.796110682
100059.796111117
100059.796111516
100059.796111877
100059.796112201
100059.796112486
100059.79611274
100059.796112953
100059.796113094
100059.79611318
100059.793804304
100059.793804318
100059.793804392
100059.793804558
100059.793804822
100059.793805168
100059.793805582
100059.793806066
100059.793806614
100059.793807224
100059.793807889
100059.793808607
100059.793809371
100059.793810177
100059.793811019
100059.793811893
100059.793812792
100059.793813713
100059.79381465
100059.793815598
100059.793816552
100059.793817508
100059.793818462
100059.79381941
100059.793820348
100059.793821271
100059.793822178
100059.793823065
100059.793823929
100059.793824767
100059.793825578
100059.793826359
100059.793827108
100059.793827824
100059.793828506
100059.793829153
100059.793829763
100059.793830336
100059.793830872
100059.793831371
100059.793831833
100059.793832258
100059.793832646
100059.793832998
100059.793833312
100059.793833586
100059.793833828
100059.793834027
100059.793834157
100059.793834233
100059.79152577
100059.79152579
100059.791525873
100059.791526048
100059.791526319
100059.791526667
100059.791527084
100059.791527567
100059.791528114
100059.79152872
100059.791529381
100059.791530093
100059.79153085
100059.791531648
100059.791532482
100059.791533346
100059.791534236
100059.791535146
100059.791536072
100059.791537009
100059.791537952
100059.791538897
100059.791539839
100059.791540775
100059.791541701
100059.791542613
100059.791543507
100059.791544382
100059.791545234
100059.791546061
100059.79154686
100059.791547629
100059.791548367
100059.791549072
100059.791549743
100059.791550379
100059.791550978
100059.79155154
100059.791552066
100059.791552554
100059.791553005
100059.79155342
100059.791553797
100059.791554138
100059.791554441
100059.791554704
100059.791554935
100059.79155512
100059.791555239
100059.791555308
100059.789247263
100059.789247291
100059.789247381
100059.789247565
100059.789247842
100059.789248193
100059.789248611
100059.789249094
100059.789249639
100059.789250242
100059.789250898
100059.789251604
100059.789252354
100059.789253144
100059.789253969
100059.789254824
100059.789255704
100059.789256604
100059.789257519
100059.789258444
100059.789259375
100059.789260308
100059.789261239
100059.789262162
100059.789263076
100059.789263975
100059.789264858
100059.789265721
100059.78926656
100059.789267375
100059.789268162
100059.78926892
100059.789269646
100059.78927034
100059.789270999
100059.789271623
100059.789272211
100059.789272763
100059.789273277
100059.789273755
100059.789274195
100059.789274598
100059.789274965
100059.789275295
100059.789275586
100059.789275839
100059.789276057
100059.78927623
100059.789276339
100059.7892764
100059.78696878
100059.786968815
100059.786968913
100059.786969105
100059.786969387
100059.786969741
100059.78697016
100059.786970643
100059.786971186
100059.786971785
100059.786972437
100059.786973137
100059.78697388
100059.786974662
100059.786975478
100059.786976323
100059.786977192
100059.786978081
100059.786978985
100059.786979899
100059.786980818
100059.786981739
100059.786982657
100059.786983568
100059.786984469
100059.786985357
100059.786986227
100059.786987077
100059.786987904
100059.786988707
100059.786989482
100059.786990227
100059.786990942
100059.786991623
100059.786992271
100059.786992884
100059.78699346
100059.786994001
100059.786994504
100059.78699497
100059.786995399
100059.786995791
100059.786996147
100059.786996465
100059.786996746
100059.786996987
100059.786997193
100059.786997353
100059.786997453
100059.786997506
100059.784690316
100059.784690357
100059.784690463
100059.784690662
100059.784690949
100059.784691306
100059.784691726
100059.784692209
100059.78469275
100059.784693346
100059.784693993
100059.784694686
100059.784695422
100059.784696196
100059.784697002
100059.784697838
100059.784698697
100059.784699574
100059.784700467
100059.784701369
100059.784702276
100059.784703185
100059.78470409
100059.784704989
100059.784705878
100059.784706752
100059.78470761
100059.784708447
100059.784709262
100059.784710052
100059.784710815
100059.784711548
100059.78471225
100059.78471292
100059.784713556
100059.784714157
100059.784714722
100059.784715251
100059.784715742
100059.784716197
100059.784716615
100059.784716996
100059.78471734
100059.784717647
100059.784717916
100059.784718146
100059.78471834
100059.784718488
100059.784718577
100059.784718624
100059.782411867
100059.782411914
100059.782412027
100059.782412233
100059.782412525
100059.782412884
100059.782413306
100059.782413788
100059.782414327
100059.782414919
100059.782415561
100059.782416248
100059.782416977
100059.782417742
100059.782418539
100059.782419365
100059.782420213
100059.78242108
100059.782421961
100059.782422851
100059.782423746
100059.782424642
100059.782425535
100059.782426421
100059.782427297
100059.782428159
100059.782429003
100059.782429828
100059.78243063
100059.782431408
100059.782432158
100059.782432878
100059.782433568
100059.782434226
100059.78243485
100059.782435439
100059.782435993
100059.78243651
100059.78243699
100059.782437433
100059.78243784
100059.782438209
100059.782438541
100059.782438836
100059.782439094
100059.782439312
100059.782439494
100059.78243963
100059.78243971
100059.78243975
100059.780133428
100059.78013348
100059.7801336
100059.780133813
100059.78013411
100059.780134471
100059.780134894
100059.780135375
100059.780135912
100059.780136501
100059.780137137
100059.780137818
100059.780138539
100059.780139296
100059.780140084
100059.780140899
100059.780141737
100059.780142593
100059.780143462
100059.78014434
100059.780145223
100059.780146106
100059.780146987
100059.78014786
100059.780148723
100059.780149572
100059.780150404
100059.780151216
100059.780152005
100059.780152769
100059.780153507
100059.780154215
100059.780154893
100059.780155538
100059.78015615
100059.780156727
100059.780157269
100059.780157774
100059.780158243
100059.780158675
100059.78015907
100059.780159427
100059.780159748
100059.780160031
100059.780160276
100059.780160484
100059.780160654
100059.780160778
100059.780160848
100059.780160881
100059.777854993
100059.777855052
100059.777855179
100059.777855398
100059.777855699
100059.777856063
100059.777856486
100059.777856967
100059.777857502
100059.777858086
100059.777858718
100059.777859392
100059.777860106
100059.777860854
100059.777861633
100059.777862438
100059.777863265
100059.777864109
100059.777864967
100059.777865833
100059.777866703
100059.777867575
100059.777868442
100059.777869303
100059.777870153
100059.777870989
100059.777871807
100059.777872606
100059.777873383
100059.777874135
100059.777874859
100059.777875555
100059.77787622
100059.777876854
100059.777877453
100059.777878018
100059.777878548
100059.777879042
100059.777879499
100059.777879919
100059.777880302
100059.777880648
100059.777880956
100059.777881228
100059.777881461
100059.777881657
100059.777881816
100059.777881928
100059.777881989
100059.777882015
100059.775576559
100059.775576623
100059.775576757
100059.775576983
100059.775577287
100059.775577653
100059.775578078
100059.775578558
100059.77557909
100059.775579671
100059.775580297
100059.775580965
100059.775581671
100059.775582411
100059.775583181
100059.775583976
100059.775584792
100059.775585625
100059.775586471
100059.775587325
100059.775588183
100059.775589042
100059.775589897
100059.775590745
100059.775591582
100059.775592405
100059.77559321
100059.775593997
100059.77559476
100059.775595499
100059.775596211
100059.775596895
100059.775597547
100059.775598168
100059.775598756
100059.775599309
100059.775599827
100059.775600308
100059.775600754
100059.775601162
100059.775601533
100059.775601867
100059.775602164
100059.775602424
100059.775602645
100059.77560283
100059.775602977
100059.775603077
100059.775603129
100059.775603148
100059.773298121
100059.773298191
100059.773298331
100059.773298563
100059.773298872
100059.77329924
100059.773299665
100059.773300144
100059.773300674
100059.773301251
100059.773301872
100059.773302534
100059.773303232
100059.773303963
100059.773304724
100059.773305509
100059.773306314
100059.773307136
100059.773307971
100059.773308813
100059.773309659
100059.773310505
100059.773311347
100059.773312182
100059.773313006
100059.773313816
100059.773314609
100059.773315383
100059.773316134
100059.77331686
100059.773317559
100059.77331823
100059.77331887
100059.773319479
100059.773320054
100059.773320595
100059.773321101
100059.773321571
100059.773322005
100059.773322402
100059.773322761
100059.773323084
100059.773323369
100059.773323616
100059.773323826
100059.773323999
100059.773324134
100059.773324223
100059.773324265
100059.773324278
100059.771019675
100059.77101975
100059.771019897
100059.771020135
100059.771020447
100059.771020817
100059.771021242
100059.771021721
100059.771022248
100059.771022821
100059.771023437
100059.771024092
100059.771024783
100059.771025506
100059.771026257
100059.771027033
100059.771027828
100059.771028639
100059.771029461
100059.771030292
100059.771031126
100059.771031959
100059.771032789
100059.771033611
100059.771034423
100059.77103522
100059.771036
100059.771036761
100059.771037499
100059.771038213
100059.771038899
100059.771039558
100059.771040186
100059.771040782
100059.771041345
100059.771041875
100059.771042369
100059.771042827
100059.771043249
100059.771043634
100059.771043982
100059.771044293
100059.771044566
100059.771044802
100059.771045
100059.771045162
100059.771045285
100059.771045363
100059.771045395
100059.771045402
100059.768741215
100059.768741296
100059.768741449
100059.768741693
100059.768742009
100059.768742381
100059.768742807
100059.768743284
100059.768743809
100059.768744378
100059.768744989
100059.768745638
100059.768746321
100059.768747036
100059.768747778
100059.768748543
100059.768749328
100059.768750128
100059.76875094
100059.768751758
100059.76875258
100059.768753402
100059.768754219
100059.768755029
100059.768755828
100059.768756612
100059.76875738
100059.768758128
100059.768758853
100059.768759554
100059.768760229
100059.768760875
100059.768761491
100059.768762075
100059.768762626
100059.768763144
100059.768763626
100059.768764073
100059.768764483
100059.768764857
100059.768765193
100059.768765492
100059.768765754
100059.768765978
100059.768766164
100059.768766315
100059.768766427
100059.768766493
100059.768766517
100059.768766516
100059.766462738
100059.766462824
100059.766462984
100059.766463234
100059.766463553
100059.766463926
100059.766464352
100059.766464829
100059.766465351
100059.766465917
100059.766466522
100059.766467165
100059.766467841
100059.766468548
100059.766469281
100059.766470037
100059.766470811
100059.766471601
100059.766472401
100059.766473208
100059.766474018
100059.766474828
100059.766475633
100059.76647643
100059.766477217
100059.766477989
100059.766478744
100059.766479479
100059.766480193
100059.766480881
100059.766481543
100059.766482177
100059.766482781
100059.766483353
100059.766483893
100059.766484399
100059.76648487
100059.766485305
100059.766485704
100059.766486066
100059.766486391
100059.766486679
100059.766486929
100059.766487141
100059.766487317
100059.766487456
100059.766487557
100059.766487611
100059.766487626
100059.766487619
100059.764184239
100059.764184331
100059.764184497
100059.764184752
100059.764185076
100059.76418545
100059.764185876
100059.764186351
100059.764186871
100059.764187433
100059.764188034
100059.76418867
100059.76418934
100059.764190038
100059.764190763
100059.764191509
100059.764192274
100059.764193052
100059.764193842
100059.764194638
100059.764195436
100059.764196234
100059.764197027
100059.764197813
100059.764198587
100059.764199347
100059.76420009
100059.764200813
100059.764201514
100059.76420219
100059.76420284
100059.764203462
100059.764204054
100059.764204615
100059.764205143
100059.764205637
100059.764206097
100059.764206521
100059.764206909
100059.76420726
100059.764207574
100059.76420785
100059.764208089
100059.76420829
100059.764208454
100059.764208583
100059.764208672
100059.764208715
100059.76420872
100059.764208707
100059.761905713
100059.761905811
100059.761905983
100059.761906245
100059.761906572
100059.761906947
100059.761907374
100059.761907847
100059.761908365
100059.761908923
100059.761909519
100059.761910149
100059.761910812
100059.761911503
100059.761912218
100059.761912956
100059.76191371
100059.761914479
100059.761915258
100059.761916043
100059.76191683
100059.761917616
100059.761918398
100059.761919171
100059.761919934
100059.761920682
100059.761921413
100059.761922124
100059.761922813
100059.761923478
100059.761924116
100059.761924726
100059.761925307
100059.761925856
100059.761926372
100059.761926855
100059.761927304
100059.761927717
100059.761928094
100059.761928434
100059.761928737
100059.761929002
100059.76192923
100059.76192942
100059.761929573
100059.761929692
100059.76192977
100059.761929801
100059.761929797
100059.761929777
100059.759627158
100059.759627261
100059.75962744
100059.759627708
100059.759628039
100059.759628415
100059.759628841
100059.759629313
100059.759629828
100059.759630382
100059.759630973
100059.759631598
100059.759632254
100059.759632937
100059.759633645
100059.759634373
100059.759635119
100059.759635877
100059.759636646
100059.75963742
100059.759638196
100059.759638971
100059.759639742
100059.759640504
100059.759641254
100059.759641991
100059.75964271
100059.75964341
100059.759644087
100059.75964474
100059.759645367
100059.759645966
100059.759646535
100059.759647073
100059.759647579
100059.759648051
100059.759648489
100059.759648891
100059.759649257
100059.759649586
100059.759649878
100059.759650133
100059.75965035
100059.75965053
100059.759650673
100059.759650781
100059.759650848
100059.759650868
100059.759650854
100059.759650827
100059.757348567
100059.757348677
100059.757348862
100059.757349137
100059.757349471
100059.757349847
100059.757350273
100059.757350744
100059.757351256
100059.757351807
100059.757352393
100059.757353013
100059.757353662
100059.757354338
100059.757355038
100059.757355758
100059.757356494
100059.757357243
100059.757358001
100059.757358765
100059.757359531
100059.757360295
100059.757361055
100059.757361806
100059.757362545
100059.75736327
100059.757363978
100059.757364667
100059.757365333
100059.757365975
100059.757366591
100059.757367178
100059.757367737
100059.757368264
100059.757368759
100059.75736922
100059.757369647
100059.757370039
100059.757370394
100059.757370713
100059.757370995
100059.757371239
100059.757371446
100059.757371615
100059.757371748
100059.757371847
100059.757371903
100059.757371911
100059.757371889
100059.757371854
100059.755069938
100059.755070055
100059.755070246
100059.755070528
100059.755070866
100059.755071242
100059.755071667
100059.755072137
100059.755072646
100059.755073194
100059.755073776
100059.75507439
100059.755075033
100059.755075702
100059.755076394
100059.755077106
100059.755077833
100059.755078573
100059.755079322
100059.755080076
100059.755080831
100059.755081585
100059.755082334
100059.755083074
100059.755083803
100059.755084517
100059.755085214
100059.755085892
100059.755086547
100059.755087178
100059.755087783
100059.75508836
100059.755088908
100059.755089425
100059.755089909
100059.75509036