/*--------------------------------*- C++ -*----------------------------------*\
  =========                 |
  \\      /  F ield         | OpenFOAM: The Open Source CFD Toolbox
   \\    /   O peration     | Website:  https://openfoam.org
    \\  /    A nd           | Version:  10
     \\/     M anipulation  |
\*---------------------------------------------------------------------------*/
FoamFile
{
    format      ascii;
    class       volScalarField;
    location    "1.8";
    object      p_rgh;
}
// * * * * * * * * * * * * * * * * * * * * * * * * * * * * * * * * * * * * * //

dimensions      [1 -1 -2 0 0 0 0];

internalField   nonuniform List<scalar> 
2500
(
59.9455990198621
59.9456282730243
59.9456394677109
59.9456423531519
59.9456433231098
59.9456438582565
59.9456443138042
59.9456448134297
59.9456453771272
59.94564600999
59.9456467111304
59.9456474756298
59.9456482979585
59.9456491722376
59.9456500919769
59.9456510508608
59.9456520423118
59.9456530604803
59.9456540993706
59.9456551532057
59.9456562166306
59.9456572845229
59.9456583519641
59.9456594141375
59.9456604670559
59.9456615069212
59.9456625297898
59.9456635325332
59.9456645121827
59.9456654657552
59.9456663909805
59.9456672858068
59.9456681481533
59.945668976492
59.9456697695132
59.9456705261837
59.9456712456449
59.9456719273003
59.945672570524
59.945673174996
59.9456737397995
59.945674263101
59.9456747404038
59.9456751595862
59.9456754925777
59.9456756121217
59.9456751509279
59.9456726328935
59.9456614857627
59.9456324889034
59.9465764430497
59.9466306375398
59.9466631907708
59.9466725309612
59.9466752567823
59.9466762183147
59.9466767693666
59.9466772886663
59.9466778561327
59.9466784900287
59.9466791913146
59.9466799558577
59.9466807781573
59.9466816521744
59.9466825715645
59.9466835299681
59.9466845210263
59.9466855386418
59.9466865769209
59.9466876301594
59.9466886929731
59.9466897602833
59.9466908271279
59.9466918886756
59.9466929409245
59.9466939801205
59.946695002247
59.9466960042628
59.9466969832429
59.9466979360441
59.9466988606
59.9466997548734
59.9467006163031
59.9467014436523
59.9467022359022
59.9467029918014
59.9467037104914
59.9467043912882
59.9467050336825
59.9467056372378
59.9467062009207
59.9467067221995
59.9467071932304
59.9467075861903
59.9467078075832
59.9467074728309
59.9467052501714
59.9466963553859
59.9466634552809
59.9466084212472
59.9471795209538
59.9472228889645
59.9472497507813
59.9472579739522
59.9472604286711
59.9472613210528
59.9472618555737
59.9472623716283
59.9472629388183
59.9472635731363
59.9472642748151
59.9472650396056
59.9472658618761
59.9472667356895
59.947267654672
59.9472686124936
59.9472696028533
59.947270619683
59.9472716570599
59.9472727092943
59.9472737710312
59.947274837119
59.9472759026685
59.9472769630811
59.9472780141077
59.9472790519212
59.9472800728254
59.9472810735169
59.9472820509836
59.9472830025043
59.9472839257214
59.947284818496
59.9472856785869
59.9472865045536
59.9472872953338
59.9472880497196
59.9472887668089
59.9472894459468
59.9472900866967
59.9472906885931
59.9472912506753
59.9472917706735
59.9472922420246
59.9472926407616
59.9472928877512
59.9472926444141
59.9472907219606
59.9472829127044
59.9472556836408
59.9472100538114
59.9474715552205
59.947495236047
59.9475076330127
59.9475115622772
59.9475128601189
59.947513457897
59.9475139228161
59.9475144237804
59.9475149882637
59.9475156223925
59.9475163241586
59.9475170888618
59.9475179108122
59.9475187839853
59.9475197020511
59.9475206587085
59.9475216477294
59.9475226630311
59.94752369872
59.94752474915
59.9475258089224
59.9475268729439
59.9475279363833
59.9475289946422
59.947530043486
59.947531079044
59.9475320976926
59.9475330960995
59.9475340712524
59.9475350204593
59.9475359413045
59.9475368316052
59.9475376893679
59.9475385130354
59.9475393013563
59.9475400531956
59.9475407676946
59.9475414442277
59.9475420823437
59.9475426816207
59.9475432414183
59.9475437601795
59.9475442341936
59.9475446514989
59.9475449790334
59.9475450505852
59.9475442942639
59.9475407398131
59.9475281976192
59.9475025337015
59.94758885396
59.947599052728
59.9476034895342
59.9476049247314
59.9476055698178
59.9476060055749
59.9476064320334
59.9476069239463
59.9476074865524
59.9476081202447
59.9476088216325
59.9476095856662
59.9476104066416
59.947611278476
59.9476121948828
59.9476131495758
59.9476141363848
59.9476151492418
59.9476161823113
59.9476172299765
59.9476182868675
59.9476193479059
59.9476204082166
59.9476214633178
59.9476225089747
59.9476235413167
59.9476245566766
59.9476255518239
59.9476265236735
59.9476274695771
59.9476283870754
59.9476292740146
59.9476301284594
59.9476309488236
59.9476317337685
59.9476324822172
59.9476331932819
59.9476338663953
59.9476345011062
59.9476350970654
59.9476356537925
59.9476361703419
59.9476366445451
59.9476370708289
59.9476374390797
59.9476376763923
59.9476375725644
59.9476365246956
59.9476321311668
59.9476208118431
59.9476298451627
59.9476334920619
59.9476348070311
59.9476352149359
59.9476355835504
59.9476359511027
59.9476363610593
59.9476368483156
59.9476374096848
59.9476380427222
59.947638743266
59.947639506121
59.9476403255248
59.9476411953219
59.9476421093423
59.947643061314
59.9476440450962
59.9476450546936
59.9476460842998
59.9476471283124
59.9476481814054
59.9476492385293
59.9476502948382
59.9476513458794
59.9476523874037
59.9476534155838
59.9476544267818
59.9476554177236
59.9476563853677
59.9476573270513
59.947658240344
59.9476591230487
59.9476599733025
59.9476607894758
59.9476615702297
59.9476623144728
59.9476630213467
59.9476636902837
59.9476643208909
59.9476649128483
59.9476654658502
59.9476659792999
59.9476664519607
59.9476668811258
59.9476672650198
59.9476675691403
59.9476677388739
59.9476677271596
59.9476665579423
59.9476624543604
59.9476427610498
59.9476438278361
59.9476441473962
59.947644222324
59.9476444882457
59.947644830434
59.9476452342933
59.9476457192359
59.9476462796156
59.9476469117799
59.9476476111013
59.9476483722829
59.9476491895039
59.9476500566816
59.9476509676169
59.9476519161399
59.9476528961386
59.9476539016905
59.9476549269893
59.9476559665345
59.9476570149855
59.9476580673363
59.9476591187849
59.947660164893
59.9476612014405
59.9476622245711
59.9476632307196
59.9476642165973
59.9476651792065
59.9476661158405
59.9476670240692
59.9476679017534
59.9476687470014
59.947669558198
59.9476703339751
59.9476710732706
59.9476717752259
59.9476724393026
59.9476730650931
59.9476736524084
59.9476742010447
59.9476747106819
59.9476751805778
59.9476756094082
59.947675997566
59.9476763249259
59.9476765958389
59.9476769192552
59.947676787895
59.9476756091608
59.9476465738117
59.9476467780769
59.9476468302892
59.9476468294743
59.9476470590889
59.947647392255
59.9476477943972
59.9476482781465
59.9476488376822
59.947649468726
59.9476501664758
59.9476509255037
59.947651740018
59.9476526039653
59.947653511219
59.9476544556092
59.9476554311259
59.9476564318757
59.947657452125
59.9476584864024
59.9476595294109
59.9476605762029
59.9476616219763
59.9476626623073
59.9476636930631
59.9476647103584
59.9476657106425
59.9476666906412
59.9476676474005
59.9476685781992
59.9476694806071
59.9476703524997
59.9476711919851
59.9476719974627
59.9476727675501
59.9476735011704
59.9476741975523
59.9476748560701
59.9476754764182
59.9476760584366
59.9476766020525
59.9476771071204
59.947677573291
59.9476779998222
59.9476783872669
59.9476787214662
59.9476790284971
59.9476794268267
59.9476795776864
59.94767940366
59.9476477345597
59.9476476968994
59.9476476929121
59.9476476964774
59.9476479138684
59.9476482437458
59.9476486459171
59.947649129128
59.9476496878342
59.9476503175974
59.9476510134118
59.9476517698786
59.9476525811915
59.9476534413407
59.9476543442725
59.9476552838896
59.9476562542404
59.9476572495041
59.9476582639909
59.9476592922583
59.9476603290968
59.9476613695297
59.9476624088711
59.9476634426828
59.9476644668757
59.9476654775644
59.9476664712129
59.947667444605
59.9476683947287
59.9476693189499
59.9476702148095
59.9476710801973
59.9476719132217
59.9476727122674
59.947673475981
59.9476742033003
59.9476748933957
59.947675545729
59.9476761599944
59.9476767361048
59.9476772740454
59.9476777738455
59.9476782353595
59.9476786582236
59.947679042496
59.9476793775102
59.9476796968665
59.9476800887205
59.9476803008583
59.947680417943
59.9476482159225
59.947648131536
59.9476481250167
59.9476481532038
59.9476483680482
59.9476486968779
59.9476490998059
59.947649582813
59.9476501407044
59.9476507689542
59.9476514625276
59.9476522160257
59.947653023657
59.9476538795134
59.9476547775557
59.9476557118178
59.9476566763624
59.9476576654561
59.9476586734818
59.9476596950699
59.9476607250253
59.9476617584151
59.9476627905824
59.9476638171618
59.9476648340351
59.9476658373896
59.9476668237185
59.9476677897765
59.9476687326096
59.9476696495403
59.9476705381676
59.9476713963668
59.9476722222462
59.9476730142196
59.9476737709483
59.9476744913118
59.9476751745387
59.9476758200908
59.9476764276624
59.9476769972243
59.947677528864
59.9476780226978
59.9476784787403
59.9476788967731
59.9476792764472
59.9476796096133
59.9476799311087
59.9476802956488
59.9476805122395
59.9476806899766
59.9476485720661
59.9476484941697
59.9476484969782
59.9476485519845
59.9476487690845
59.9476490979869
59.9476495020208
59.9476499850134
59.9476505420607
59.9476511685934
59.9476518596202
59.9476526097715
59.9476534132846
59.9476542643097
59.9476551569533
59.9476560852636
59.9476570434199
59.9476580257324
59.9476590266859
59.9476600409253
59.9476610632992
59.9476620889764
59.9476631133148
59.9476641319779
59.9476651408768
59.9476661362423
59.9476671145385
59.9476680725929
59.9476690074371
59.947669916437
59.9476707971771
59.9476716475474
59.9476724656997
59.9476732499897
59.9476739990787
59.9476747119188
59.9476753876952
59.9476760258694
59.9476766262087
59.9476771886548
59.9476777133823
59.9476782005659
59.947678650351
59.9476790625486
59.9476794365619
59.9476797662064
59.9476800842822
59.9476804189908
59.9476806270977
59.947680800964
59.9476489459485
59.9476488854853
59.9476488994551
59.9476489786321
59.9476492007379
59.9476495305571
59.9476499358861
59.9476504189661
59.9476509750966
59.9476515997521
59.9476522879413
59.9476530343381
59.9476538332965
59.9476546790538
59.9476555657602
59.9476564875949
59.94765743881
59.9476584137738
59.9476594070293
59.9476604132942
59.9476614275045
59.9476624448434
59.9476634607126
59.9476644708047
59.9476654711034
59.9476664578106
59.9476674274774
59.947668376888
59.947669303132
59.94767020359
59.9476710758609
59.9476719178056
59.9476727275905
59.9476735036151
59.9476742445404
59.9476749492896
59.9476756170625
59.9476762473496
59.947676839889
59.9476773946808
59.9476779118995
59.9476783917926
59.9476788345783
59.9476792400819
59.9476796075469
59.947679932302
59.9476802433492
59.9476805507584
59.947680747835
59.9476809036714
59.9476493701368
59.9476493270486
59.9476493521506
59.9476494519913
59.947649680631
59.9476500120509
59.947650418806
59.9476509020315
59.9476514571579
59.9476520797034
59.9476527647785
59.9476535071008
59.9476543011115
59.9476551411644
59.947656021468
59.9476569363178
59.9476578800386
59.9476588471007
59.9476598321053
59.9476608298428
59.9476618352928
59.9476628436823
59.9476638505002
59.9476648514392
59.9476658425119
59.9476668199932
59.947667780405
59.9476687206043
59.947669637666
59.9476705289853
59.9476713921904
59.9476722251711
59.9476730260649
59.9476737932855
59.9476745254942
59.9476752216287
59.9476758808742
59.9476765027503
59.9476770869951
59.9476776335796
59.9476781427511
59.947678614757
59.9476790498593
59.9476794478833
59.9476798079995
59.9476801265992
59.9476804282458
59.9476807117608
59.9476808973704
59.9476810346969
59.9476498484728
59.9476498203585
59.947649856098
59.9476499734155
59.9476502093603
59.9476505429629
59.9476509512315
59.947651434617
59.9476519886375
59.9476526088984
59.9476532905683
59.9476540284813
59.9476548171806
59.9476556510781
59.9476565245423
59.9476574319415
59.9476583676878
59.9476593263389
59.9476603025687
59.9476612912404
59.9476622873917
59.9476632863079
59.9476642834925
59.9476652747253
59.9476662560337
59.9476672237215
59.9476681743399
59.9476691047748
59.9476700121159
59.9476708937727
59.9476717473735
59.9476725708373
59.9476733623305
59.9476741202525
59.9476748432498
59.9476755302894
59.9476761805417
59.9476767935266
59.9476773689676
59.9476779068791
59.947678407465
59.9476788710308
59.9476792978094
59.9476796876697
59.9476800397097
59.9476803510333
59.9476806418097
59.9476809044863
59.9476810786873
59.947681199832
59.9476503783517
59.9476503629558
59.9476504089689
59.9476505411585
59.9476507845975
59.9476511207904
59.9476515306451
59.9476520141907
59.9476525669888
59.9476531847758
59.9476538627932
59.9476545959769
59.9476553789864
59.9476562063792
59.9476570725819
59.9476579720795
59.9476588994003
59.9476598491892
59.9476608161494
59.9476617952605
59.9476627816039
59.9476637705375
59.9476647575939
59.9476657386112
59.9476667096314
59.9476676669874
59.9476686073031
59.9476695274498
59.9476704245753
59.9476712960604
59.9476721395913
59.9476729530725
59.9476737346558
59.9476744827844
59.9476751961192
59.9476758735982
59.9476765144209
59.9476771180489
59.9476776842639
59.9476782130223
59.9476787045423
59.9476791591442
59.9476795770315
59.947679958088
59.9476803013822
59.9476806044404
59.947680883517
59.9476811278582
59.9476812906796
59.9476813982037
59.9476509552333
59.9476509506057
59.9476510063687
59.9476511513931
59.9476514022244
59.9476517413132
59.9476521527977
59.9476526364306
59.94765318789
59.9476538029994
59.9476544771169
59.9476552052947
59.9476559823088
59.9476568028185
59.9476576613815
59.9476585526136
59.9476594710868
59.9476604115334
59.9476613688166
59.947662337916
59.9476633139857
59.947664292471
59.9476652689482
59.9476662392553
59.9476671995071
59.9476681461092
59.9476690756564
59.9476699850493
59.9476708714792
59.947671732356
59.9476725653367
59.9476733683696
59.9476741396211
59.9476748775342
59.94767558077
59.9476762482955
59.947676879252
59.9476774731302
59.9476780296827
59.947678548866
59.9476790308836
59.9476794760267
59.9476798845135
59.9476802561985
59.9476805901504
59.9476808841428
59.9476811511122
59.9476813789806
59.9476815306261
59.9476816264796
59.9476515746792
59.9476515794522
59.9476516446011
59.9476518008742
59.9476520587486
59.9476524008642
59.9476528139785
59.9476532976551
59.9476538476592
59.9476544599311
59.9476551299158
59.9476558528404
59.9476566235535
59.94765743686
59.9476582874486
59.9476591700077
59.947660079255
59.9476610100101
59.9476619572088
59.9476629158744
59.9476638812775
59.947664848878
59.9476658143249
59.9476667735144
59.9476677226048
59.9476686579874
59.9476695763296
59.9476704745612
59.9476713498589
59.9476721996762
59.9476730217139
59.9476738139056
59.9476745744323
59.947675301737
59.9476759944955
59.9476766516309
59.9476772723428
59.9476778561075
59.9476784026047
59.9476789118344
59.9476793839422
59.9476798191899
59.947680217796
59.9476805796148
59.9476809036714
59.9476811879431
59.9476814426453
59.9476816554525
59.9476817961113
59.9476818818512
59.9476522316836
59.9476522447803
59.9476523187768
59.9476524851198
59.9476527496445
59.9476530948305
59.94765350956
59.9476539932075
59.9476545416401
59.9476551509142
59.947655816577
59.9476565339719
59.9476572981221
59.9476581039489
59.9476589462429
59.9476598198235
59.9476607195247
59.9476616402389
59.9476625769603
59.9476635248429
59.9476644792157
59.9476654355676
59.9476663896057
59.9476673373138
59.9476682748209
59.9476691986201
59.9476701053791
59.9476709920418
59.9476718558581
59.9476726942667
59.947673504983
59.9476742859406
59.9476750353788
59.9476757517114
59.9476764336287
59.9476770800684
59.9476776902011
59.9476782635029
59.9476787996246
59.9476792985224
59.947679760342
59.9476801853161
59.9476805736194
59.9476809250918
59.947681238802
59.9476815128728
59.9476817553077
59.9476819540287
59.9476820839918
59.9476821606659
59.9476529218082
59.9476529425301
59.9476530250686
59.947653200521
59.9476534712594
59.9476538194867
59.9476542357734
59.9476547192899
59.9476552660635
59.9476558721508
59.9476565333171
59.9476572449785
59.9476580023329
59.9476588004036
59.947659634141
59.9476604984666
59.9476613883162
59.9476622986695
59.9476632246224
59.9476641614165
59.9476651044097
59.9476660491782
59.947666991502
59.9476679273648
59.9476688529685
59.9476697648352
59.9476706596761
59.9476715344645
59.9476723864354
59.9476732130861
59.9476740121463
59.9476747815643
59.9476755195938
59.9476762246341
59.9476768954191
59.9476775308431
59.9476781301055
59.9476786926098
59.9476792180358
59.9476797063107
59.9476801575074
59.9476805718441
59.9476809494663
59.9476812902285
59.9476815931994
59.9476818566618
59.9476820868731
59.9476822722645
59.9476823917503
59.9476824601734
59.9476536401344
59.9476536678558
59.947653758456
59.9476539423194
59.9476542188495
59.9476545700454
59.9476549878163
59.9476554711437
59.9476560161129
59.9476566188969
59.947657275392
59.9476579811453
59.9476587314857
59.9476595215965
59.9476603465446
59.9476612013677
59.9476620811038
59.9476629808487
59.9476638957713
59.9476648211858
59.9476657525374
59.9476666854462
59.9476676157647
59.9476685394911
59.9476694529294
59.9476703525725
59.9476712351898
59.9476720977982
59.947672937662
59.9476737522782
59.9476745393913
59.9476752969931
59.9476760233229
59.9476767168089
59.9476773761708
59.947678000317
59.9476785884326
59.947679139892
59.9476796543604
59.9476801317214
59.9476805720042
59.9476809754124
59.9476813420479
59.9476816717652
59.947681963662
59.9476822162251
59.9476824343001
59.9476826068712
59.9476827161852
59.9476827768376
59.9476543822238
59.9476544165955
59.9476545150101
59.9476547067025
59.9476549886458
59.9476553426794
59.9476557618327
59.947656244869
59.9476567879028
59.9476573872817
59.9476580389601
59.9476587386453
59.9476594818116
59.9476602637733
59.9476610797428
59.9476619248599
59.9476627942786
59.9476636831969
59.9476645868708
59.9476655006874
59.9476664201502
59.9476673409808
59.9476682590321
59.9476691704185
59.9476700714149
59.9476709586015
59.9476718287624
59.9476726789435
59.9476735064382
59.9476743087871
59.9476750837202
59.9476758292585
59.9476765436557
59.9476772253547
59.947677873075
59.9476784857106
59.9476790624176
59.9476796026283
59.9476801059209
59.9476805721206
59.9476810012711
59.9476813934743
59.9476817488467
59.947682067228
59.9476823477744
59.9476825892198
59.9476827952458
59.9476829553896
59.9476830546773
59.9476831080246
59.9476551431289
59.9476551838015
59.9476552896667
59.9476554887515
59.9476557757589
59.9476561324846
59.947656552933
59.9476570355764
59.9476575766166
59.9476581724448
59.9476588191756
59.9476595126762
59.9476602485374
59.9476610222046
59.9476618290355
59.9476626642863
59.9476635232277
59.9476644011447
59.94766529341
59.9476661954541
59.9476671028679
59.9476680114167
59.947668917026
59.9476698158396
59.947670704234
59.947671578775
59.9476724362903
59.9476732738549
59.9476740887912
59.9476748786401
59.9476756412041
59.9476763745042
59.9476770767797
59.9476777465024
59.9476783823775
59.9476789833279
59.9476795484807
59.9476800772245
59.9476805691374
59.9476810240012
59.9476814418013
59.9476818226103
59.9476821664866
59.9476824733138
59.9476827423059
59.9476829724881
59.9476831665379
59.9476833145018
59.9476834039961
59.947683450242
59.947655918455
59.9476559652539
59.9476560784096
59.947656284523
59.9476565763034
59.9476569355757
59.9476573571883
59.9476578393369
59.9476583782816
59.9476589704864
59.9476596121822
59.9476602993673
59.947661027807
59.9476617930923
59.9476625906682
59.947663415951
59.9476642642985
59.9476651310979
59.9476660117944
59.9476669019205
59.9476677971688
59.9476686933049
59.9476695863414
59.9476704724657
59.9476713480835
59.9476722098188
59.947673054543
59.9476738793455
59.9476746815781
59.9476754587959
59.9476762088452
59.9476769297326
59.9476776197407
59.9476782773563
59.9476789012551
59.9476794903603
59.9476800438133
59.9476805609447
59.947681041318
59.9476814847003
59.9476818909752
59.9476822602155
59.9476825924357
59.947682887534
59.9476831448264
59.947683363629
59.9476835457608
59.9476836817485
59.9476837615657
59.9476838009577
59.9476567032689
59.947656756005
59.9476568761602
59.947657089011
59.9476573853026
59.9476577469613
59.9476581696217
59.9476586512174
59.9476591879647
59.9476597764733
59.9476604130614
59.9476610938873
59.9476618148328
59.9476625716343
59.947663359897
59.9476641751244
59.9476650128199
59.9476658684289
59.9476667374984
59.9476676156337
59.9476684985857
59.9476693822362
59.9476702626125
59.9476711359603
59.9476719987142
59.9476728475711
59.9476736793877
59.9476744913263
59.9476752807532
59.9476760452671
59.9476767826854
59.9476774910727
59.9476781687117
59.9476788140892
59.9476794258953
59.9476800030679
59.9476805447048
59.947681050151
59.9476815188973
59.9476819506672
59.9476823453297
59.9476827028702
59.9476830233179
59.947683306571
59.9476835520472
59.9476837593829
59.9476839296694
59.9476840538264
59.947684124083
59.9476841566939
59.9476574932778
59.9476575518638
59.9476576789166
59.9476578982431
59.9476581988274
59.9476585627272
59.9476589863043
59.947659467216
59.9476600017078
59.9476605864475
59.9476612178696
59.9476618922781
59.9476626057003
59.947663354018
59.9476641329384
59.9476649380813
59.9476657650521
59.9476666094415
59.9476674668404
59.9476683329849
59.947669203626
59.9476700747327
59.9476709424052
59.9476718029182
59.9476726527791
59.9476734886848
59.9476743075647
59.9476751065959
59.9476758831588
59.9476766348816
59.9476773596252
59.9476780554542
59.9476787206804
59.9476793537615
59.9476799534314
59.9476805185986
59.9476810483757
59.9476815420348
59.9476819990814
59.9476824191806
59.9476828021579
59.9476831479406
59.9476834565285
59.9476837278635
59.9476839614799
59.9476841573487
59.9476843158482
59.9476844282617
59.9476844890596
59.9476845150784
59.9476582837087
59.9476583478681
59.947658481542
59.947658707184
59.9476590118866
59.9476593778672
59.9476598022593
59.9476602823997
59.9476608145633
59.9476613954757
59.9476620217465
59.9476626897231
59.9476633956219
59.9476641354413
59.9476649050048
59.9476657000778
59.9476665163675
59.9476673495519
59.9476681953092
59.9476690494339
59.9476699077786
59.9476707663562
59.9476716213248
59.9476724690467
59.9476733060001
59.9476741289691
59.9476749348978
59.9476757210068
59.9476764847059
59.9476772236667
59.947677935721
59.9476786189771
59.9476792717469
59.9476798925461
59.9476804800506
59.9476810332126
59.9476815510861
59.9476820329583
59.9476824783051
59.9476828867191
59.9476832579676
59.9476835919631
59.9476838886912
59.9476841481082
59.9476843698649
59.9476845542522
59.9476847009937
59.9476848017512
59.9476848532358
59.9476848727209
59.9476590699633
59.9476591397543
59.9476592800493
59.9476595118467
59.9476598204928
59.9476601884089
59.9476606134704
59.9476610927813
59.9476616225729
59.9476621996437
59.9476628207049
59.9476634822786
59.9476641806832
59.9476649120334
59.9476656723127
59.9476664573886
59.9476672630408
59.9476680850639
59.9476689192234
59.9476697614009
59.9476706075075
59.9476714536286
59.9476722959662
59.9476731308969
59.9476739550009
59.947674765077
59.9476755581272
59.9476763313723
59.9476770822512
59.94767780845
59.9476785078441
59.9476791785855
59.9476798189426
59.9476804274746
59.9476810028573
59.9476815440285
59.9476820500422
59.9476825201564
59.9476829537889
59.9476833505178
59.9476837100665
59.9476840323041
59.9476843171869
59.9476845647005
59.9476847746409
59.9476849476196
59.9476850826613
59.9476851718355
59.9476852139924
59.947685226929
59.9476598473266
59.9476599226764
59.947660069447
59.9476603072835
59.9476606197713
59.9476609894773
59.9476614151063
59.9476618934568
59.9476624208037
59.9476629940327
59.947663609928
59.9476642651425
59.9476649560966
59.9476656790648
59.9476664301474
59.9476672052988
59.9476680004154
59.9476688113937
59.9476696340716
59.9476704644039
59.9476712983887
59.9476721321553
59.9476729619491
59.9476737842051
59.9476745955762
59.9476753928611
59.9476761731203
59.9476769335743
59.9476776717347
59.9476783852733
59.9476790721092
59.9476797303942
59.9476803584257
59.9476809547632
59.9476815181115
59.9476820473501
59.9476825415622
59.9476829999621
59.9476834219531
59.9476838070696
59.9476841549913
59.9476844655292
59.9476847386395
59.9476849743514
59.9476851725776
59.9476853342494
59.9476854576496
59.9476855352841
59.9476855681569
59.9476855745306
59.9476606116805
59.9476606926328
59.9476608458353
59.9476610896236
59.9476614058512
59.9476617771579
59.9476622032089
59.9476626805117
59.9476632053993
59.9476637747721
59.9476643855451
59.9476650344586
59.9476657180639
59.9476664327813
59.9476671747689
59.9476679401414
59.947668724868
59.9476695249323
59.9476703362889
59.947671154936
59.94767197693
59.9476727984729
59.9476736158831
59.9476744256244
59.9476752243936
59.9476760090329
59.9476767766464
59.9476775244548
59.9476782500133
59.9476789510227
59.9476796254457
59.9476802713907
59.9476808872278
59.9476814715017
59.9476820229029
59.9476825403253
59.9476830228377
59.9476834696397
59.9476838800911
59.9476842536969
59.947684590079
59.9476848890336
59.9476851504878
59.9476853745437
59.9476855611865
59.947685711697
59.947685823543
59.9476858896669
59.9476859132847
59.9476859131537
59.9476613582956
59.9476614447922
59.9476616042812
59.9476618540357
59.9476621739013
59.9476625466777
59.9476629730198
59.9476634491875
59.9476639715576
59.9476645371178
59.9476651428122
59.9476657855266
59.9476664619287
59.9476671685261
59.9476679015934
59.9476686573325
59.9476694318582
59.9476702212123
59.9476710214221
59.9476718285587
59.9476726387802
59.9476734483032
59.9476742535189
59.9476750509493
59.9476758373203
59.9476766095031
59.9476773646311
59.9476780999976
59.9476788131578
59.9476795018272
59.947680163983
59.9476807977771
59.9476814015798
59.9476819739357
59.9476825135498
59.9476830193307
59.9476834902889
59.9476839256386
59.9476843246812
59.9476846869075
59.9476850119099
59.9476852994412
59.9476855494286
59.9476857620029
59.9476859372808
59.9476860768191
59.9476861771982
59.9476862318261
59.9476862462034
59.9476862394804
59.9476620829955
59.9476621751674
59.9476623409864
59.9476625967363
59.9476629201963
59.9476632942242
59.9476637206826
59.9476641956717
59.9476647155097
59.9476652772573
59.9476658779749
59.9476665146212
59.9476671839657
59.9476678825886
59.9476686069538
59.947669353307
59.9476701178355
59.9476708966831
59.947671685979
59.9476724818524
59.9476732805342
59.9476740782848
59.9476748715388
59.9476756568911
59.9476764310821
59.9476771910558
59.9476779339457
59.9476786571031
59.9476793580689
59.947680034631
59.9476806847379
59.947681306614
59.9476818985859
59.9476824592275
59.9476829872583
59.9476834815723
59.9476839411655
59.9476843652374
59.9476847530605
59.9476851040963
59.9476854178938
59.9476856941765
59.9476859329152
59.9476861342555
59.9476862984011
59.9476864272583
59.9476865162433
59.9476865593606
59.947686564512
59.9476865511388
59.9476627812401
59.9476628791745
59.9476630512509
59.9476633131417
59.9476636401669
59.9476640152425
59.9476644416718
59.9476649153221
59.9476654326136
59.9476659906359
59.9476665864931
59.9476672172168
59.9476678796782
59.947668570574
59.9476692864264
59.9476700236119
59.9476707784343
59.9476715470664
59.9476723257103
59.947673110597
59.9476738979865
59.9476746842411
59.947675465839
59.9476762393897
59.9476770017063
59.947677749733
59.9476784806611
59.9476791918569
59.9476798809192
59.9476805456507
59.947681183985
59.9476817941759
59.947682374579
59.9476829237683
59.9476834404486
59.947683923514
59.9476843719749
59.9476847849874
59.9476851618238
59.9476855018875
59.9476858046983
59.9476860700088
59.9476862977317
59.947686488129
59.9476866414916
59.9476867599587
59.9476868377096
59.9476868692291
59.9476868651691
59.9476868450001
59.9476634490275
59.9476635529863
59.9476637314074
59.9476639996574
59.9476643301896
59.9476647060656
59.9476651322911
59.9476656045445
59.9476661192894
59.9476666736155
59.9476672647288
59.9476678897045
59.9476685455156
59.9476692289172
59.9476699365332
59.947670664842
59.9476714102057
59.9476721689134
59.94767293724
59.9476737114601
59.9476744878921
59.9476752629707
59.9476760332036
59.9476767952729
59.9476775460353
59.9476782824495
59.9476790017361
59.9476797013194
59.9476803787693
59.9476810319466
59.9476816588285
59.9476822576398
59.9476828267652
59.9476833647786
59.9476838703995
59.9476843425073
59.9476847800979
59.9476851822983
59.9476855483808
59.9476858777198
59.9476861698058
59.947686424377
59.9476866414043
59.9476868211932
59.9476869641221
59.9476870726357
59.9476871392835
59.9476871591469
59.9476871458464
59.9476871187071
59.9476640820212
59.9476641922374
59.9476643770176
59.9476646519615
59.947664985928
59.9476653622987
59.9476657881169
59.9476662588859
59.9476667710987
59.9476673218451
59.94766790836
59.9476685277914
59.9476691771706
59.9476698533545
59.9476705530396
59.9476712727919
59.9476720090315
59.947672758135
59.9476735164644
59.9476742803527
59.9476750461909
59.947675810472
59.9476765697182
59.9476773206843
59.9476780602126
59.9476787853782
59.9476794933871
59.9476801816927
59.9476808479376
59.9476814899099
59.9476821056742
59.9476826934406
59.9476832516229
59.9476837787952
59.9476842736622
59.9476847351179
59.9476851621439
59.9476855538524
59.9476859094721
59.9476862283627
59.9476865100296
59.9476867541962
59.9476869608625
59.9476871303923
59.9476872633531
59.947687362408
59.9476874182001
59.94768742616
59.9476874036482
59.9476873692474
59.9476646763214
59.9476647932897
59.9476649845601
59.9476652667072
59.9476656039915
59.9476659804641
59.9476664056856
59.947666874883
59.9476673845638
59.9476679318468
59.947668513938
59.9476691280433
59.9476697712817
59.9476704405388
59.9476711325988
59.9476718441147
59.947672571594
59.9476733114861
59.9476740602113
59.9476748141606
59.9476755697833
59.9476763236162
59.9476770722831
59.9476778125245
59.9476785412553
59.9476792555797
59.9476799527183
59.9476806301391
59.9476812855137
59.947681916703
59.947682521728
59.9476830988424
59.9476836464601
59.9476841631404
59.9476846476318