/*--------------------------------*- C++ -*----------------------------------*\
  =========                 |
  \\      /  F ield         | OpenFOAM: The Open Source CFD Toolbox
   \\    /   O peration     | Website:  https://openfoam.org
    \\  /    A nd           | Version:  10
     \\/     M anipulation  |
\*---------------------------------------------------------------------------*/
FoamFile
{
    format      ascii;
    class       surfaceScalarField;
    location    "1.8";
    object      phi;
}
// * * * * * * * * * * * * * * * * * * * * * * * * * * * * * * * * * * * * * //

dimensions      [1 0 -1 0 0 0 0];

internalField   nonuniform List<scalar> 
4900
(
-5.32585219247769e-12
5.09569821983017e-12
-7.02024177375963e-12
1.33925968250567e-12
-4.89100688379572e-12
-2.5062206477051e-12
-3.58566791545705e-12
-1.67158507820867e-12
-2.71520852243373e-12
-1.22813452419048e-12
-2.17308375405308e-12
-8.96836605980187e-13
-1.82486279747754e-12
-7.02058737365336e-13
-1.57904728165262e-12
-5.9835150790442e-13
-1.39380800338652e-12
-5.35120922623044e-13
-1.24764339898489e-12
-4.91929232703935e-13
-1.1286491580147e-12
-4.5947473576755e-13
-1.02945065942941e-12
-4.33524814716976e-13
-9.45008183582962e-13
-4.12086990364559e-13
-8.71776636452042e-13
-3.93847358625178e-13
-8.07274465198698e-13
-3.77963475773605e-13
-7.49504701982601e-13
-3.64010376287007e-13
-6.97014478810983e-13
-3.51589415264116e-13
-6.48588144754598e-13
-3.40457819147417e-13
-6.03302530120417e-13
-3.30436494204699e-13
-5.60328780977703e-13
-3.21394862014657e-13
-5.19006839874369e-13
-3.13262541421046e-13
-4.7873001241397e-13
-3.05933480830857e-13
-4.38992370568405e-13
-2.99396246512775e-13
-3.99275152237577e-13
-2.93600063387797e-13
-3.59147216462738e-13
-2.88537229140489e-13
-3.1810423510203e-13
-2.84209777639232e-13
-2.75726645786303e-13
-2.80604612872059e-13
-2.31458685577702e-13
-2.77783258794199e-13
-1.84801339054685e-13
-2.75754326549389e-13
-1.35177140874582e-13
-2.74523378799862e-13
-8.19734602170123e-14
-2.74188458389998e-13
-2.43883746545523e-14
-2.74872245344158e-13
3.83547297776442e-14
-2.76611933368747e-13
1.07296341283188e-13
-2.79612426091416e-13
1.83640538359206e-13
-2.84096637790797e-13
2.68919913109265e-13
-2.90333272492175e-13
3.65069615450141e-13
-2.9876482323633e-13
4.74673556146363e-13
-3.09953532456149e-13
6.01181754868833e-13
-3.24747658355207e-13
7.49642883059286e-13
-3.44582603152435e-13
9.27595422471897e-13
-3.71821641541488e-13
1.14745245437644e-12
-4.11082578911599e-13
1.43180841478946e-12
-4.72418836199608e-13
1.82476935534556e-12
-5.77367118839021e-13
2.41993079592023e-12
-7.76071364444078e-13
3.35440269804805e-12
-1.11337323672023e-12
4.72682744576013e-12
-1.55244236557564e-12
6.9868434351802e-12
-2.44486512861242e-12
5.38963174642089e-12
1.41165843391699e-12
5.25989095412488e-12
-6.66258303289272e-12
1.14374609804294e-11
-9.93304967664653e-12
4.14997856265803e-12
-8.16565930940771e-12
-4.74182211592921e-12
-6.48322289825711e-12
-3.80295212217119e-12
-5.26992080103714e-12
-2.87812033664699e-12
-4.37868240849056e-12
-2.22039399166789e-12
-3.70211642791457e-12
-1.80933807300664e-12
-3.17332568138598e-12
-1.55581696641244e-12
-2.74871195948492e-12
-1.38481244810179e-12
-2.40039311897826e-12
-1.26004853030981e-12
-2.10943415769903e-12
-1.16362068263537e-12
-1.86255879576009e-12
-1.08598790919157e-12
-1.65016493410884e-12
-1.02187328111149e-12
-1.46517626187691e-12
-9.6765095738083e-13
-1.30233296674663e-12
-9.20910416732511e-13
-1.15744643506761e-12
-8.80230599409909e-13
-1.0272598313792e-12
-8.44442456214496e-13
-9.09062443453156e-13
-8.12759112694122e-13
-8.00666770578099e-13
-7.8460154588175e-13
-7.00125593905746e-13
-7.59565988755385e-13
-6.05801746695074e-13
-7.37377399431062e-13
-5.16186613597907e-13
-7.17750348348586e-13
-4.29973135252745e-13
-7.00564522641246e-13
-3.45864579696718e-13
-6.85695128647552e-13
-2.62679882217521e-13
-6.73100809246008e-13
-1.79171327820025e-13
-6.62777666144905e-13
-9.41662307421943e-14
-6.54709776481824e-13
-6.3781641380062e-15
-6.48995456511222e-13
8.54694585484113e-14
-6.45699539795447e-13
1.82808980768915e-13
-6.44907802427058e-13
2.871642933733e-13
-6.46874155600619e-13
4.00330182158341e-13
-6.51923726736379e-13
5.24217710471339e-13
-6.60275104478661e-13
6.61167617099937e-13
-6.72502639610396e-13
8.13895743652213e-13
-6.8926424611282e-13
9.85760931261156e-13
-7.11408409325856e-13
1.18092639218938e-12
-7.40215565747249e-13
1.40473279274006e-12
-7.77324368735509e-13
1.66417529569991e-12
-8.25195719389554e-13
1.96890839468302e-12
-8.87721219568378e-13
2.33236766368759e-12
-9.7086875621876e-13
2.77408284950089e-12
-1.08504477729795e-12
3.32346428183293e-12
-1.25005618559519e-12
4.02783692998568e-12
-1.50551885266805e-12
4.95951580285263e-12
-1.92761786456124e-12
6.22741918537161e-12
-2.59981107711339e-12
7.98102995739597e-12
-3.5280901975827e-12
9.97484718307272e-12
-4.66860258236411e-12
6.79574439339312e-12
4.3622744496003e-12
1.19051788752356e-11
-7.0286443680238e-12
1.81250276703908e-11
-8.12875066574747e-12
4.78217457425958e-12
-7.66780294285468e-12
-5.65241084880193e-12
-6.76742150565013e-12
-5.1246024100725e-12
-5.77534196446313e-12
-4.27652084181397e-12
-4.91490224076591e-12
-3.4818047557666e-12
-4.20911986990143e-12
-2.9140344744012e-12
-3.6390789785705e-12
-2.52255598545047e-12
-3.17360185831343e-12
-2.24343100081344e-12
-2.7882195634771e-12
-2.03352158413174e-12
-2.46447653343144e-12
-1.86921218782128e-12
-2.18870498420462e-12
-1.73648602215307e-12
-1.95084392701177e-12
-1.6268112364799e-12
-1.74327930335185e-12
-1.53430536536024e-12
-1.56020737544229e-12
-1.45497314360484e-12
-1.39704111533522e-12
-1.3862430080534e-12
-1.25014253445004e-12
-1.32614395704987e-12
-1.11647192248763e-12
-1.2732920768641e-12
-9.93537392314121e-13
-1.22667217807167e-12
-8.7913892224188e-13
-1.18555944275401e-12
-7.71431610153797e-13
-1.14941931854384e-12
-6.68685403202691e-13
-1.11780484528449e-12
-5.69398226493439e-13
-1.09045248022826e-12
-4.72106574701408e-13
-1.06714049591148e-12
-3.75454145468646e-13
-1.04779468006134e-12
-2.78034958607705e-13
-1.03239469421838e-12
-1.78516989737541e-13
-1.02091587632352e-12
-7.54888189043415e-14
-1.01346609843424e-12
3.25007917894688e-14
-1.01020941241937e-12
1.47083071311842e-13
-1.01134392211467e-12
2.6997193209348e-13
-1.01726380547962e-12
4.03133469081612e-13
-1.02848546318839e-12
5.48748449187039e-13
-1.04550067382973e-12
7.09402426274263e-13
-1.0692348622681e-12
8.88102863374043e-13
-1.10082201316515e-12
1.08854537061164e-12
-1.14174057557166e-12
1.31527430351607e-12
-1.19414857930525e-12
1.57404615090598e-12
-1.26080174427276e-12
1.87232691707636e-12
-1.34582532621492e-12
2.22017547550357e-12
-1.45551043810584e-12
2.63116493176643e-12
-1.59916520494162e-12
3.12386911034833e-12
-1.79190823791078e-12
3.72322422500001e-12
-2.05980429414171e-12
4.46157727291332e-12
-2.45011089200965e-12
5.35930374250908e-12
-3.02825215359264e-12
6.39360787530738e-12
-3.83692448075382e-12
7.37104544764924e-12
-4.71450427629781e-12
8.03294677519604e-12
-5.55177735819721e-12
7.00673060750092e-12
5.16159796774266e-12
1.87642253112914e-11
-7.76222968669524e-12
2.55399189048452e-11
-7.25852323125324e-12
3.8127394205692e-12
-7.01500415807009e-12
-6.32436385006917e-12
-6.37535269863074e-12
-6.15875603565985e-12
-5.52204677107907e-12
-5.50779102864448e-12
-4.75398973998832e-12
-4.62191540047498e-12
-4.11978722854679e-12
-3.91798462407654e-12
-3.60609527197298e-12
-3.40372774866938e-12
-3.18588024966259e-12
-3.02769677337645e-12
-2.83736131318483e-12
-2.74132408752858e-12
-2.54415993359933e-12
-2.51585842529644e-12
-2.29405330832453e-12
-2.33340541131013e-12
-2.07799541498228e-12
-2.18257528039596e-12
-1.88905253496243e-12
-2.05554453061667e-12
-1.72188555140638e-12
-1.94692892041448e-12
-1.57225767635402e-12
-1.85311347692668e-12
-1.43679046441609e-12
-1.77140397486384e-12
-1.3126482231514e-12
-1.69987379373706e-12
-1.19750982874099e-12
-1.63709717936986e-12
-1.08933000350808e-12
-1.58204480359901e-12
-9.86394790164173e-13
-1.53394012842183e-12
-8.87094193908271e-13
-1.49218806768541e-12
-7.90046906120515e-13
-1.45637540226227e-12
-6.93885726167344e-13
-1.42621165961246e-12
-5.97371219167243e-13
-1.40156439320311e-12
-4.99235723852015e-13
-1.38237906044815e-12
-3.98262000366409e-13
-1.36864180171617e-12
-2.93137458198711e-13
-1.36049055359579e-12
-1.82542109659258e-13
-1.35815269393262e-12
-6.49721807854382e-14
-1.3619461720072e-12
6.11476913621552e-14
-1.37239190945831e-12
1.9761857711675e-13
-1.39017459300686e-12
3.46466457684018e-13
-1.41606607598344e-12
5.10068435115281e-13
-1.45129294613175e-12
6.91180643183268e-13
-1.49741890657552e-12
8.9319753256181e-13
-1.55650695197449e-12
1.12024650921201e-12
-1.63147452735575e-12
1.37754031008271e-12
-1.72607393547795e-12
1.67177168661965e-12
-1.84586743364889e-12
2.01185978781844e-12
-1.9991897212343e-12
2.40967616492063e-12
-2.19813397208097e-12
2.88121288806948e-12
-2.4616640354241e-12
3.44739292321805e-12
-2.82067373840921e-12
4.13341746385075e-12
-3.32694181646199e-12
4.94995499067104e-12
-4.03262944987967e-12
5.85212454149745e-12
-4.92755244313848e-12
6.59737079179232e-12
-5.65607487907131e-12
7.03932372840991e-12
-6.20577259715594e-12
7.64786102930238e-12
4.32881125146398e-12
2.62658838119155e-11
-5.7825697666844e-12
3.09781422251657e-11
-6.80804652482837e-12
4.38225961799078e-12
-6.67466469200494e-12
-6.86428162055061e-12
-5.96846698415344e-12
-7.23517919804455e-12
-5.17663316011727e-12
-6.65290442237116e-12
-4.49049884164361e-12
-5.65521251802275e-12
-3.93010015905408e-12
-4.82309268226931e-12
-3.47460279036567e-12
-4.20162706330626e-12
-3.10003174606462e-12
-3.74133135530336e-12
-2.78768318905457e-12
-3.38818004722269e-12
-2.52367306809908e-12
-3.10884248559443e-12
-2.2975688080532e-12
-2.88222343307955e-12
-2.1015543400311e-12
-2.69461217946797e-12
-1.9295446033384e-12
-2.53660835973033e-12
-1.77679369528591e-12
-2.40168051210292e-12
-1.63949195818462e-12
-2.28532965000425e-12
-1.5145768567122e-12
-2.18424148527509e-12
-1.39945764345885e-12
-2.09601495823449e-12
-1.29200402840078e-12
-2.01886284873568e-12
-1.19033563477897e-12
-1.95147707850264e-12
-1.0928699739493e-12
-1.89286839706529e-12
-9.98132084005388e-13
-1.84229134677254e-12
-9.04849183911769e-13
-1.79920586364535e-12
-8.11757927586911e-13
-1.76325930402119e-12
-7.17731507606981e-13
-1.73424850543662e-12
-6.21603625334664e-13
-1.71209978038955e-12
-5.22259975235341e-13
-1.69680514859807e-12
-4.18494497559407e-13
-1.68853209609789e-12
-3.0910042179778e-13
-1.68756190975307e-12
-1.92699685153644e-13
-1.69432397737316e-12
-6.78438652154506e-14
-1.70946122037793e-12
6.71106620252426e-14
-1.73379990748463e-12
2.14013567435516e-13
-1.76837022996403e-12
3.75028695761549e-13
-1.8146659032122e-12
5.52646446087469e-13
-1.87462613484459e-12
7.49910311069038e-13
-1.95081606157422e-12
9.70481220625962e-13
-2.04679637052309e-12
1.21893905139505e-12
-2.16715457833605e-12
1.50106290942082e-12
-2.31861237309102e-12
1.82443532966484e-12
-2.51113440811961e-12
2.19896613371699e-12
-2.75897922902244e-12
2.63779409775545e-12
-3.08407115709531e-12
3.15798898108701e-12
-3.52112631804546e-12
3.78019886937611e-12
-4.12573213018337e-12
4.52096293665228e-12
-4.94721675929319e-12
5.36687928956359e-12
-5.94828408407495e-12
6.19478235530842e-12
-6.66756701749985e-12
6.54657805617841e-12
-6.75868861759753e-12
5.66065976605487e-12
4.99715324628231e-12
3.17855648871212e-11
-3.89233783983837e-12
3.45311848481073e-11
-6.09529796981345e-12
6.1389234221981e-12
-6.14135745220583e-12
-7.20903985804007e-12
-5.51122646407342e-12
-8.21872824553675e-12
-4.83549715317697e-12
-7.66487137027193e-12
-4.24553784751118e-12
-6.57516261821195e-12
-3.75636020065441e-12
-5.63969418479914e-12
-3.35132064085152e-12
-4.93174078060209e-12
-3.01335707934776e-12
-4.40108723565665e-12
-2.72829849200764e-12
-3.99062531658378e-12
-2.48520450331478e-12
-3.66401289776138e-12
-2.27555978673523e-12
-3.39795875269523e-12
-2.09278718434397e-12
-3.17709058350707e-12
-1.93163609173366e-12
-2.99082264189949e-12
-1.78792707311573e-12
-2.83173362643788e-12
-1.65823689180374e-12
-2.69461441465444e-12
-1.53977917111768e-12
-2.5756361724562e-12
-1.430170935002e-12
-2.4719897742938e-12
-1.32743329282016e-12
-2.38157915106739e-12
-1.22980823535765e-12
-2.3028464200472e-12
-1.13581006961053e-12
-2.23461262354725e-12
-1.04405085627514e-12
-2.17599206056331e-12
-9.53324401249256e-13
-2.12633618516381e-12
-8.62445513624543e-13
-2.08521955901644e-12
-7.70343036454794e-13
-2.05238989684715e-12
-6.75919571285207e-13
-2.02774133686264e-12
-5.78124055842913e-13
-2.01127700556878e-12
-4.75815635650143e-13
-2.0031935412401e-12
-3.67851528096472e-13
-2.00382610011829e-12
-2.52942966090169e-13
-2.01369164800738e-12
-1.29727783017177e-13
-2.03355759130148e-12
3.32717762821355e-15
-2.06436833360492e-12
1.47937636334759e-13
-2.10738884619999e-12
3.06106744010825e-13
-2.16435406009646e-12
4.80108061373139e-13
-2.23752154417684e-12
6.72679701124334e-13
-2.32987232400435e-12
8.87069925494949e-13
-2.44550357226192e-12
1.12726757644306e-12
-2.58966339109949e-12
1.39819338037137e-12
-2.7699677047052e-12
1.7061011131749e-12
-2.99754826193504e-12
2.05889714988501e-12
-3.28815903545634e-12
2.46660791541262e-12
-3.6655799060755e-12
2.94156972031809e-12
-4.16671772253805e-12
3.49743685424604e-12
-4.84868516219639e-12
4.14702737266152e-12
-5.76123412357934e-12
4.88373399269298e-12
-6.85055499462699e-12
5.63986880291921e-12
-7.59849568259462e-12
5.82417874692273e-12
-7.13644659103675e-12
3.76315075956861e-12
6.84578942896355e-12
3.54104711571382e-11
-2.71095194862567e-12
3.69115778711136e-11
-5.17906392469527e-12
8.17456547795345e-12
-5.4078198263141e-12
-7.35360172415699e-12
-4.99231052021704e-12
-8.97043089820614e-12
-4.47772654721888e-12
-8.49884821034139e-12
-3.99636829049442e-12
-7.36969453196148e-12
-3.57939403481321e-12
-6.36718427643835e-12
-3.22279878255241e-12
-5.59643776622119e-12
-2.91844151497883e-12
-5.01027847653876e-12
-2.65748224482429e-12
-4.55210641843452e-12
-2.43220579856445e-12
-4.18465921659761e-12
-2.23611751303784e-12
-3.88363522124879e-12
-2.06392354476819e-12
-3.63272164009689e-12
-1.91122008042108e-12
-3.42057216534745e-12
-1.77439850151306e-12
-3.23914334249078e-12
-1.65042566729541e-12
-3.08269169578201e-12
-1.53678409461735e-12
-2.94698969353039e-12
-1.43128859128836e-12
-2.82889010626576e-12
-1.33209928305153e-12
-2.726043404747e-12
-1.23757197860061e-12
-2.63666706988869e-12
-1.14630197232457e-12
-2.55942278871269e-12
-1.05697201622244e-12
-2.49329549638788e-12
-9.68432986586174e-13
-2.43753974651912e-12
-8.79555570566759e-13
-2.39165990511202e-12
-7.89314908430815e-13
-2.35536181659876e-12
-6.96662119471606e-13
-2.32850708550751e-12
-6.00592999436438e-13
-2.31111042034854e-12
-5.00014567968037e-13
-2.30339729464003e-12
-3.93840976393046e-13
-2.30574774014536e-12
-2.80847169760519e-13
-2.31876034470849e-12
-1.59747793257449e-13
-2.34331307271379e-12
-2.90926922035759e-14
-2.38046403095486e-12
1.12709002986517e-13
-2.43166954792518e-12
2.67513812732069e-13
-2.49888606828697e-12
4.37386938380447e-13
-2.58462689260383e-12
6.24781658551907e-13
-2.69221421458303e-12
8.32544998973007e-13
-2.82616592752508e-12
1.06407871184849e-12
-2.99220766575816e-12
1.32344169659762e-12
-3.1985781016602e-12
1.61555981174111e-12
-3.45711520673169e-12
1.94630376116678e-12
-3.78436501236279e-12
2.32248205470441e-12
-4.20478243085767e-12
2.75128092601215e-12
-4.75552289234882e-12
3.23813631259349e-12
-5.49213008267139e-12
3.78462427220083e-12
-6.46172238288347e-12
4.36845782750495e-12
-7.58957790273416e-12
4.90709998180549e-12
-8.30165460693136e-12
4.90266355434389e-12
-7.31530722109125e-12
2.56896054126781e-12
8.97621794511435e-12
3.78482438197939e-11
-2.01468168122749e-12
3.86036853454415e-11
-4.28113015883239e-12
1.00202946315696e-11
-4.64974630308661e-12
-7.34613608221038e-12
-4.45940643463078e-12
-9.48527275765132e-12
-4.10612886544701e-12
-9.1600275480307e-12
-3.73231224613693e-12
-8.04519039101207e-12
-3.38646213144657e-12
-7.01196520642579e-12
-3.07780712385212e-12
-6.20153919347377e-12
-2.8066668226012e-12
-5.57459218706421e-12
-2.56941810754631e-12
-5.07827909369369e-12
-2.36154636261343e-12
-4.67641917164585e-12
-2.17858210445494e-12
-4.34485965348056e-12
-2.01653463816213e-12
-4.06705560332977e-12
-1.87186986143303e-12
-3.83132348225591e-12
-1.74156810351177e-12
-3.62927129583437e-12
-1.62299650301748e-12
-3.45480540666214e-12
-1.51391759441612e-12
-3.30341708411119e-12
-1.41235240452525e-12
-3.17169256852982e-12
-1.31660670829123e-12
-3.05708802266166e-12
-1.22514863562538e-12
-2.95762900305007e-12
-1.13665833888939e-12
-2.87184417631447e-12
-1.04989348010344e-12
-2.79859896021278e-12
-9.63756555863537e-13
-2.73707362757478e-12
-8.77168950700954e-13
-2.6867032584694e-12
-7.89156723513494e-13
-2.64715165227724e-12
-6.98712829576553e-13
-2.61825693477248e-12
-6.04879300815871e-13
-2.60004065330832e-12
-5.06610247549208e-13
-2.59275736472739e-12
-4.02870948331691e-13
-2.59682719273669e-12
-2.92496663152081e-13
-2.61292199789134e-12
-1.74281441671519e-13
-2.64201094496894e-12
-4.68603235396873e-14
-2.68526090926143e-12
9.12361083980185e-14
-2.74428272559758e-12
2.4171405585786e-13
-2.82122685244191e-12
4.06428674841884e-13
-2.91880149343693e-12
5.87543854405248e-13
-3.04059303563033e-12
7.87492191735379e-13
-3.19141442563895e-12
1.00908754892405e-12
-3.3772990517338e-12
1.25551691790116e-12
-3.60682612690534e-12
1.53039590393022e-12
-3.89210661660597e-12
1.83759970811922e-12
-4.24979663739794e-12
2.1808549341444e-12
-4.70394187781614e-12
2.56249828040957e-12
-5.29016936756358e-12
2.98043904260486e-12
-6.05975152879242e-12
3.42445587566418e-12
-7.05286340432953e-12
3.85422273787039e-12
-8.16760429427499e-12
4.16162843194564e-12
-8.76656089711448e-12
3.99881086223304e-12
-7.32876253070519e-12
1.86456514652682e-12
1.09141133005825e-11
3.9585450115291e-11
-1.57567909144731e-12
3.98681152368052e-11
-3.51345445412426e-12
1.15538265895773e-11
-3.9693248031027e-12
-7.23490960853739e-12
-3.95260269934442e-12
-9.81135705695985e-12
-3.73679855078518e-12
-9.66931204485425e-12
-3.4602061290979e-12
-8.60916845543941e-12
-3.18130830986829e-12
-7.57542983712147e-12
-2.91930061700702e-12
-6.74555064484765e-12
-2.68122512122305e-12
-6.09137540711646e-12
-2.46795505198003e-12
-5.5660489902567e-12
-2.2778891558818e-12
-5.13604408729624e-12
-2.10846533633499e-12
-4.77834695035627e-12
-1.95696028804303e-12
-4.47680742597786e-12
-1.82069622329843e-12
-4.21980660374453e-12
-1.69724231053735e-12
-3.99886430893914e-12
-1.58437242656757e-12
-3.80771475608658e-12
-1.48014689859755e-12
-3.64167323967364e-12
-1.38279126218662e-12
-3.49715163678795e-12
-1.29077490946474e-12
-3.37145079517036e-12
-1.20267842347134e-12
-3.26245484379949e-12
-1.11727319228967e-12
-3.16857912669605e-12
-1.0333937657183e-12
-3.08858414953633e-12
-9.5000144358933e-13
-3.02159307857081e-12
-8.66074068033901e-13
-2.96697432915308e-12
-7.80686126756387e-13
-2.92435662443856e-12
-6.92880343743902e-13
-2.8935545107666e-12
-6.01743482249284e-13
-2.87460026321998e-12
-5.06284921374342e-13
-2.86776835989639e-12
-4.05520524689519e-13
-2.87352240870953e-12
-2.98351698238332e-13
-2.89259396580276e-12
-1.83655503921131e-13
-2.92602488004958e-12
-6.01578585229086e-14
-2.97508465565649e-12
7.34923746937791e-14
-3.04151052290481e-12
2.18833857281007e-13
-3.12759829254059e-12
3.77509757285944e-13
-3.23620736057762e-12
5.51389351871959e-13
-3.37110603144642e-12
7.42486340545079e-13
-3.53727918062612e-12
9.53035676747841e-13
-3.74091046388809e-12
1.18536693463195e-12
-3.99064332275755e-12
1.44184918060416e-12
-4.29847743611502e-12
1.72451083084376e-12
-4.68058226222486e-12
2.03432938280711e-12
-5.15969517405785e-12
2.36954717597897e-12
-5.76856134585179e-12
2.72217606328248e-12
-6.55235493076226e-12
3.07309336114502e-12
-7.54125167844444e-12
3.37062885084125e-12
-8.60368605613592e-12
3.49817292121042e-12
-9.04159317521296e-12
3.2258923209061e-12
-7.22196345294101e-12
1.42325269715596e-12
1.25318202550595e-11
4.0890116868137e-11
-1.27347397588631e-12
4.08403995347635e-11
-2.8942139593313e-12
1.27843131209798e-11
-3.39232077162633e-12
-7.06941708692132e-12
-3.49097473784874e-12
-1.00111737109969e-11
-3.38276460925283e-12
-1.00605034746933e-11
-3.18910643026471e-12
-9.07977411192637e-12
-2.97076453985734e-12
-8.06782840016262e-12
-2.75286636538689e-12
-7.23486964355096e-12
-2.54711335234583e-12
-6.56523305326332e-12
-2.35788442092771e-12
-6.01921275265541e-12
-2.18603144493805e-12
-5.56697658445556e-12
-2.0306864358448e-12
-5.1873939884741e-12
-1.89029288717509e-12
-4.86522488812529e-12
-1.76298407815207e-12
-4.58926137150825e-12
-1.64690349462742e-12
-4.35116590819644e-12
-1.54022691593564e-12
-4.14466957673353e-12
-1.44130926961376e-12
-3.96501631796429e-12
-1.34858436409823e-12
-3.80852836662095e-12
-1.26068987281332e-12
-3.67239014298997e-12
-1.17632093034054e-12
-3.55439785176924e-12
-1.09435377463093e-12
-3.45286226570535e-12
-1.01369867399728e-12
-3.36646826266255e-12
-9.33389358745447e-13
-3.29428428379673e-12
-8.52458852878139e-13
-3.23563020300714e-12
-7.70037148715576e-13
-3.19009817901109e-12
-6.85215020269854e-13
-3.15748793360539e-12
-5.97133418461947e-13
-3.13783529860882e-12
-5.04858720663692e-13
-3.13143285136926e-12
-4.07468028111227e-13
-3.13878309177849e-12
-3.03929251843196e-13
-3.16067267209689e-12
-1.93204665294722e-13
-3.19819726822349e-12
-7.41220339781087e-14
-3.25271255366409e-12
5.45465730575695e-14
-3.32606079444635e-12
1.94170199158866e-13
-3.42063747838494e-12
3.4617825146254e-13
-3.53940843460646e-12
5.121436098024e-13
-3.68624313912835e-12
6.93670439906644e-13
-3.86618533506151e-12
8.92439166802787e-13
-4.08542625539739e-12
1.10997246019314e-12
-4.35242350061647e-12
1.34750392444698e-12
-4.67874175921665e-12
1.60544274410029e-12
-5.07958442775899e-12
1.88247787059423e-12
-5.57571492693338e-12
2.17369134215421e-12
-6.19611967610965e-12
2.46704369921788e-12
-6.97896119332034e-12
2.73808496549317e-12
-7.9430869058386e-12
2.93130586733508e-12
-8.92865180569469e-12
2.9384549384833e-12
-9.1890723405176e-12
2.6037700870276e-12
-7.04504671565975e-12
1.12253266108232e-12
1.38368281801623e-11
4.18989345937927e-11
-1.0515152523372e-12
4.16044632067601e-11
-2.40416003282192e-12
1.37661019443451e-11
-2.91126151457945e-12
-6.87701206202418e-12
-3.07951525403913e-12
-1.01253677273398e-11
-3.05111704893044e-12
-1.03567698359249e-11
-2.92543567377701e-12
-9.46748331601368e-12
-2.76011818561122e-12
-8.49223941015238e-12
-2.58276765849329e-12
-7.66861069351898e-12
-2.40785335638961e-12
-6.99320250689527e-12
-2.24224060019718e-12
-6.43375066036799e-12
-2.08870259861666e-12
-5.96467303682131e-12
-1.94779348309122e-12
-5.56720774643706e-12
-1.81898161836986e-12
-5.22740916799325e-12
-1.70113627721093e-12
-4.93476070677644e-12
-1.5929303434806e-12
-4.68126774876605e-12
-1.49292762821485e-12
-4.46079582070702e-12
-1.3997673308325e-12
-4.26861770612699e-12
-1.31209296404841e-12
-4.10104023057455e-12
-1.22870770647277e-12
-3.95517301927951e-12
-1.14843293438961e-12
-3.82876362028192e-12
-1.07024658326659e-12
-3.720041873553e-12
-9.93137864255919e-13
-3.62763977083376e-12
-9.16218216498424e-13
-3.55057096399813e-12
-8.38579741345535e-13
-3.48812598065912e-12
-7.59414766841455e-13
-3.43985691144588e-12
-6.77868655164717e-13
-3.40555647478445e-12
-5.93139960397627e-13
-3.38526096820335e-12
-5.04354450035269e-13
-3.37928001987132e-12
-4.10654440225513e-13
-3.38814838557615e-12
-3.11082913033276e-13
-3.41269887242e-12
-2.046872460811e-13
-3.45407049930169e-12
-9.04014245137084e-14
-3.51368498766625e-12
3.28763968124641e-14
-3.5934689294704e-12
1.66345316325851e-13
-3.69587472614508e-12
3.11223532064534e-13
-3.82393291031563e-12
4.68793919795363e-13
-3.9815367664599e-12
6.40272705715129e-13
-4.1736910956625e-12
8.26826312310384e-13
-4.40647141423417e-12
1.02925601487693e-12
-4.68794449044664e-12
1.24779533027481e-12
-5.02896663059798e-12
1.48151019409865e-12
-5.44343670858756e-12
1.72731772728566e-12
-5.94972146478038e-12
1.97807323691163e-12
-6.57259009976482e-12
2.21936579867273e-12
-7.34302697472859e-12
2.42450214754998e-12
-8.26861474467069e-12
2.53962406850801e-12
-9.16502435164659e-12
2.47336790389046e-12
-9.25214581634891e-12
2.11302498673474e-12
-6.8302207999866e-12
9.03107544179399e-13
1.48840685582931e-11
4.26985918445983e-11
-8.81313088695103e-13
4.22103966135173e-11
-2.01587439807562e-12
1.45461495568753e-11
-2.51006504088917e-12
-6.68416226735689e-12
-2.71629197476047e-12
-1.01896795673154e-11
-2.74460143030515e-12
-1.05849143506248e-11
-2.67297588666281e-12
-9.78982560033293e-12
-2.55287725184245e-12
-8.86007351156367e-12
-2.41189209168505e-12
-8.05457426870151e-12
-2.26573827661183e-12
-7.38099322786898e-12
-2.122839105964e-12
-6.81420523385743e-12
-1.98736650752872e-12
-6.33302772807969e-12
-1.86099595907052e-12
-5.9213299924508e-12
-1.7440479558386e-12
-5.56671867534872e-12
-1.6360346734467e-12
-5.2595692987903e-12
-1.53610818990168e-12
-4.99238756314063e-12
-1.44318718590457e-12
-4.75929470411049e-12
-1.35617753825369e-12
-4.55567862659144e-12
-1.27393349752649e-12
-4.37788476127794e-12
-1.195410333827e-12
-4.22300598401686e-12
-1.1195621645393e-12
-4.08876037196565e-12
-1.04546568336909e-12
-3.9733293925941e-12
-9.72198579004708e-13
-3.87530332723774e-12
-8.98946956588372e-13
-3.79365429387299e-12
-8.24873617200989e-13
-3.72764752298328e-12
-7.49228087299065e-13
-3.67680817070351e-12
-6.71220938108636e-13
-3.64091471787349e-12
-5.90106524410913e-13
-3.62001281083061e-12
-5.05080594446589e-13
-3.61441547654868e-12
-4.15347321871386e-13
-3.62469784803394e-12
-3.20031560241555e-13
-3.65171946330749e-12
-2.18270957043001e-13
-3.69665342240373e-12
-1.09106815991662e-13
-3.7609716932189e-12
8.43801792820392e-15
-3.8466667442231e-12
1.35398134918356e-13
-3.95620916833959e-12
2.72787603988954e-13
-4.09265388299953e-12
4.21613619083687e-13
-4.25984758645802e-12
5.82736157010142e-13
-4.46267563271767e-12
7.56860205309994e-13
-4.70699564259135e-12
9.44171081529191e-13
-5.00033069164937e-12
1.14406216461519e-12
-5.35261046147999e-12
1.35454461607286e-12
-5.77622000068487e-12
1.57125953722826e-12
-6.28691550476397e-12
1.78569159382784e-12
-6.90515295656013e-12
1.98240178593915e-12
-7.65506284081921e-12
2.13471764742293e-12
-8.53394832665644e-12
2.19374010711038e-12
-9.33778019911534e-12
2.0866203201565e-12
-9.2663455019149e-12
1.72620527223183e-12
-6.60651562577053e-12
7.35837894040748e-13
1.57219842441698e-11
4.33366779620082e-11
-7.46686699295776e-13
4.26975866018706e-11
-1.70513626473494e-12
1.51721172026534e-11
-2.17295026618769e-12
-6.4978099760192e-12
-2.39641907770423e-12
-1.02190435730166e-11
-2.46337180787757e-12
-1.07577324759474e-11
-2.43362169420083e-12
-1.00538514597924e-11
-2.35124252879766e-12
-9.17373449566644e-12
-2.24220698084303e-12
-8.39209322103608e-12
-2.122357831892e-12
-7.72598756545587e-12
-2.00090964329707e-12
-7.15677693004332e-12
-1.88294937816169e-12
-6.66754442487389e-12
-1.77097698779264e-12
-6.24486763839615e-12
-1.66599250033757e-12
-5.87803849163702e-12
-1.56804117642557e-12
-5.55846198280937e-12
-1.47668772269521e-12
-5.27925907538473e-12
-1.39117142817973e-12
-5.03489473139705e-12
-1.31064202558642e-12
-4.82094584901346e-12
-1.23414968485326e-12
-4.63384361299641e-12
-1.16079919495572e-12
-4.47070865840467e-12
-1.08967383753206e-12
-4.32924969222547e-12
-1.01994927753681e-12
-4.20762955092135e-12
-9.50793445443748e-13
-4.10440487914474e-12
-8.8146707963197e-13
-4.01852143247167e-12
-8.11206187469643e-13
-3.94922122633395e-12
-7.3932492147149e-13
-3.89600987236776e-12
-6.65098367291238e-13
-3.85865293353847e-12
-5.87843492813611e-13
-3.83720662457466e-12
-5.06822463487249e-13
-3.83198421694902e-12
-4.21313406379747e-13
-3.84359345653714e-12
-3.30517078281019e-13
-3.87291914640172e-12
-2.33667191880518e-13
-3.921147844448e-12
-1.29908584628046e-13
-3.98979500748193e-12
-1.83892339729915e-14
-4.08089676134484e-12
1.01767352578601e-13
-4.19690945040963e-12
2.31381837714766e-13
-4.3408765138843e-12
3.71210795055575e-13
-4.51654223890809e-12
5.21796766404035e-13
-4.72860586905694e-12
6.83447234689707e-13
-4.98262929586425e-12
8.55836641207891e-13
-5.28548103806717e-12
1.03769265427887e-12
-5.64601575442834e-12
1.22626245351934e-12
-6.07501240846087e-12
1.41635339548661e-12
-6.58555535922072e-12
1.59877913561703e-12
-7.19395113694216e-12
1.75808418932716e-12
-7.91811189806548e-12
1.86911046470374e-12
-8.7465193972292e-12
1.88944441080246e-12
-9.46028189361456e-12
1.76278093306056e-12
-9.24882735823434e-12
1.41906640495862e-12
-6.38583903675078e-12
6.04592290887129e-13
1.63992095715373e-11
4.38548894387491e-11
-6.37445786462547e-13
4.3089243589653e-11
-1.45269826757365e-12
1.56731281882129e-11
-1.88688641921682e-12
-6.33032496026088e-12
-2.11428061549691e-12
-1.02313143291247e-11
-2.20616242825497e-12
-1.08929958582044e-11
-2.20800833980102e-12
-1.02737878323513e-11
-2.15648664665838e-12
-9.44402427467789e-12
-2.07504498084819e-12
-8.68947641424201e-12
-1.97887460472598e-12
-8.03477962915671e-12
-1.87738389391153e-12
-7.46693866720873e-12
-1.77616276815346e-12
-6.97298301347426e-12
-1.67826454661429e-12
-6.54213430930492e-12
-1.5851894011483e-12
-6.16541094964035e-12
-1.49740475650776e-12
-5.83531763442392e-12
-1.41482289145877e-12
-5.5456590993742e-12
-1.33695629643876e-12
-5.29131568991663e-12
-1.26317515244314e-12
-5.0681032860264e-12
-1.19270783824816e-12
-4.87258071709402e-12
-1.12480144794352e-12
-4.70193054928915e-12
-1.05866015787794e-12
-4.55387450273774e-12
-9.93561403322149e-13
-4.42657397435509e-12
-9.28761719131042e-13
-4.31856658110215e-12
-8.63597174607768e-13
-4.22878318101578e-12
-7.97378578841703e-13
-4.15644505329624e-12
-7.29489080980823e-13
-4.10104279102625e-12
-6.59266850876635e-13
-4.06233604089001e-12
-5.86099229428223e-13
-4.04038304785978e-12
-5.09311710131157e-13
-4.03550640118322e-12
-4.28263766089856e-13
-4.04832660584124e-12
-3.42231137504399e-13
-4.07976198798064e-12
-2.50541365685684e-13
-4.13099240148842e-12
-1.52442930202907e-13
-4.20356825863326e-12