/*--------------------------------*- C++ -*----------------------------------*\
  =========                 |
  \\      /  F ield         | OpenFOAM: The Open Source CFD Toolbox
   \\    /   O peration     | Website:  https://openfoam.org
    \\  /    A nd           | Version:  10
     \\/     M anipulation  |
\*---------------------------------------------------------------------------*/
FoamFile
{
    format      ascii;
    class       volScalarField;
    location    "1.8";
    object      rho;
}
// * * * * * * * * * * * * * * * * * * * * * * * * * * * * * * * * * * * * * //

dimensions      [1 -3 0 0 0 0 0];

internalField   nonuniform List<scalar> 
2500
(
1.14166952682937
1.14194803971952
1.14205190386419
1.14207613225089
1.14208126952459
1.14208236595452
1.14208259877125
1.14208265256871
1.14208267060298
1.14208267681895
1.1420826843498
1.14208268935646
1.142082692441
1.14208269640008
1.14208270008968
1.14208270423506
1.14208270636185
1.14208270903405
1.14208271205761
1.14208271422126
1.14208271653327
1.14208271947854
1.1420827222441
1.14208272253546
1.14208272292866
1.14208272471516
1.14208272490618
1.14208272533823
1.14208272641679
1.14208272553126
1.14208272460582
1.14208272440023
1.14208272316026
1.14208272138107
1.14208271966684
1.14208271820856
1.14208271659113
1.14208271523494
1.14208271236191
1.14208270960797
1.14208270598979
1.14208269966824
1.14208268231198
1.14208261705716
1.14208233304053
1.14208112692366
1.14207583757722
1.14205157248102
1.14194616267862
1.14166957863392
1.15127754117656
1.15179995930156
1.15211143920791
1.15220134863891
1.15222481708659
1.15223065642712
1.1522320181905
1.15223231441308
1.15223237611289
1.15223238843802
1.15223239277489
1.15223239468198
1.15223239540048
1.15223239646381
1.15223239748429
1.15223239867066
1.15223239936822
1.15223240017917
1.15223240103221
1.1522324018517
1.15223240338846
1.15223240565127
1.15223240819117
1.15223240816142
1.15223240799901
1.15223240954707
1.15223240908952
1.1522324091481
1.15223241043072
1.15223240901099
1.15223240860325
1.15223241017164
1.15223240780829
1.15223240445483
1.15223240333912
1.1522324029118
1.15223240256772
1.1522324022854
1.15223240148996
1.15223240037116
1.15223239608006
1.15223237708339
1.15223229136162
1.15223191360809
1.15223033478969
1.15222411485466
1.15220048623018
1.15211136607621
1.15179432808909
1.1512636571166
1.15721683228433
1.15763759846486
1.15789933923416
1.15798002978798
1.15800145959849
1.15800687848043
1.15800816795567
1.15800845351442
1.15800851242894
1.1580085234354
1.15800852648001
1.158008527241
1.15800852662862
1.15800852656967
1.15800852649447
1.15800852661389
1.15800852664481
1.15800852669524
1.15800852686359
1.15800852700909
1.15800852765423
1.15800852866627
1.15800852975519
1.15800853007412
1.15800853000241
1.15800853025143
1.15800853040957
1.15800853026266
1.15800853012665
1.15800852973059
1.15800852986474
1.15800853078797
1.15800852952704
1.15800852733329
1.15800852693241
1.15800852715471
1.15800852728812
1.15800852744008
1.15800852753259
1.1580085277583
1.15800852470988
1.15800850757518
1.1580084306729
1.15800809071708
1.15800667078793
1.15800106966761
1.15797971768803
1.15789943017156
1.15763191721193
1.15718910348673
1.160030606456
1.16026109928867
1.16038197401085
1.16042067492408
1.16043069702288
1.16043317436483
1.16043376131829
1.1604338926848
1.16043392010956
1.16043392495839
1.16043392620211
1.16043392648336
1.16043392601847
1.16043392579659
1.16043392559309
1.16043392552318
1.16043392556009
1.16043392553942
1.16043392547796
1.16043392548797
1.16043392565626
1.16043392597529
1.16043392641902
1.16043392657937
1.16043392649497
1.16043392653282
1.16043392666672
1.16043392655443
1.16043392632891
1.16043392624392
1.16043392633794
1.16043392673089
1.16043392624153
1.16043392533301
1.16043392520468
1.1604339253867
1.1604339255426
1.16043392565699
1.16043392579128
1.16043392610233
1.1604339254091
1.16043391861683
1.16043388664753
1.1604337442493
1.1604331365699
1.16043065896156
1.16042075729488
1.16038197362496
1.16025761157756
1.16000757027506
1.16113976852523
1.16123958869999
1.16128294590627
1.16129756221564
1.16130133601922
1.16130225792509
1.16130247610018
1.16130252551267
1.16130253596868
1.16130253775727
1.16130253820199
1.16130253829266
1.16130253807656
1.16130253794493
1.1613025378317
1.16130253778665
1.16130253781281
1.16130253780653
1.16130253775712
1.16130253775742
1.16130253780533
1.16130253790036
1.16130253807598
1.16130253811771
1.16130253806825
1.16130253808669
1.1613025381576
1.16130253812086
1.16130253801932
1.16130253800483
1.16130253805013
1.16130253819183
1.16130253804466
1.16130253776057
1.16130253775911
1.16130253783489
1.16130253789087
1.16130253798297
1.16130253808109
1.16130253817602
1.16130253809836
1.161302535921
1.16130252487938
1.16130247545767
1.16130226192971
1.16130137102867
1.1612976959859
1.16128303896864
1.16123807794153
1.16112682190171
1.16152183563364
1.16155860295018
1.16157194215116
1.16157669361131
1.16157793512709
1.1615782374767
1.16157830902964
1.16157832539072
1.16157832889636
1.16157832948921
1.16157832963383
1.16157832966167
1.16157832958442
1.16157832953524
1.16157832949697
1.16157832948926
1.16157832950936
1.16157832951756
1.161578329506
1.16157832951667
1.16157832954118
1.16157832957929
1.16157832964043
1.16157832965303
1.1615783296493
1.1615783296687
1.16157832970408
1.16157832970627
1.16157832968217
1.16157832968174
1.16157832970937
1.16157832976462
1.16157832973318
1.16157832967372
1.1615783296908
1.16157832972028
1.16157832975106
1.16157832980316
1.16157832986589
1.1615783299113
1.16157832991334
1.161578329282
1.16157832586328
1.16157831046909
1.16157824364301
1.16157796091588
1.16157677325522
1.16157202196083
1.16155808731626
1.16151609107404
1.1616405118965
1.16165252668372
1.16165624082215
1.16165763096558
1.16165800172187
1.16165809231411
1.16165811376391
1.1616581187014
1.16165811977365
1.16165811996395
1.16165812000632
1.16165812001296
1.16165811999941
1.16165811999152
1.16165811998884
1.16165811999788
1.16165812001563
1.1616581200306
1.16165812003877
1.16165812005498
1.16165812007617
1.16165812009996
1.16165812012816
1.16165812014258
1.16165812015537
1.16165812017402
1.16165812019637
1.16165812021383
1.16165812022059
1.16165812022922
1.16165812024986
1.16165812027699
1.16165812028152
1.1616581202811
1.16165812029876
1.16165812031789
1.16165812033831
1.16165812036685
1.16165812040066
1.16165812042538
1.16165812043594
1.16165812027367
1.16165811929703
1.1616581148571
1.16165809556872
1.16165801338109
1.16165766529526
1.16165628072961
1.16165238118441
1.16163834617331
1.16167445910948
1.16167803742408
1.16167900448116
1.16167938044744
1.16167948320473
1.16167950851473
1.16167951451477
1.16167951590339
1.16167951621255
1.16167951627287
1.1616795162889
1.16167951629841
1.16167951630422
1.16167951631211
1.16167951632249
1.16167951633717
1.16167951635458
1.16167951637197
1.16167951638771
1.16167951640613
1.16167951642584
1.16167951644599
1.16167951646731
1.16167951648498
1.16167951650305
1.16167951652253
1.16167951654197
1.16167951656095
1.1616795165763
1.16167951659102
1.16167951660909
1.1616795166283
1.1616795166425
1.1616795166558
1.16167951667253
1.16167951668878
1.16167951670516
1.16167951672393
1.16167951674418
1.16167951676176
1.16167951677308
1.16167951673946
1.16167951648342
1.16167951528356
1.16167951005844
1.16167948772517
1.16167939300057
1.16167902009634
1.16167800342855
1.16167373577422
1.16168352757258
1.16168451691005
1.16168475722997
1.16168485289964
1.1616848797196
1.1616848864017
1.16168488799086
1.16168488836256
1.16168488845043
1.1616848884729
1.16168488848478
1.1616848884966
1.16168488850822
1.16168488852124
1.16168488853574
1.16168488855207
1.16168488856959
1.16168488858766
1.16168488860567
1.16168488862454
1.16168488864394
1.16168488866357
1.16168488868341
1.16168488870245
1.1616848887217
1.16168488874114
1.16168488876009
1.16168488877884
1.16168488879651
1.16168488881365
1.16168488883125
1.16168488884872
1.16168488886493
1.16168488888064
1.16168488889656
1.1616848889119
1.16168488892678
1.1616848889419
1.16168488895703
1.16168488897103
1.16168488898319
1.1616848889843
1.16168488892689
1.16168488862481
1.1616848872865
1.16168488154669
1.16168485725617
1.16168476277509
1.1616845109355
1.16168330795133
1.16168580418268
1.16168606149338
1.16168611920188
1.16168614239092
1.16168614905167
1.1616861507354
1.16168615113974
1.16168615123814
1.1616861512663
1.1616861512791
1.16168615129042
1.16168615130283
1.16168615131614
1.16168615133066
1.1616861513463
1.16168615136306
1.16168615138063
1.16168615139882
1.16168615141733
1.16168615143627
1.1616861514556
1.16168615147509
1.16168615149465
1.16168615151402
1.16168615153337
1.16168615155263
1.1616861515715
1.16168615159009
1.16168615160819
1.16168615162587
1.16168615164328
1.1616861516603
1.16168615167665
1.1616861516925
1.16168615170797
1.16168615172286
1.16168615173722
1.16168615175123
1.16168615176482
1.16168615177781
1.16168615179004
1.16168615179932
1.16168615179368
1.16168615172717
1.16168615140534
1.16168615000299
1.16168614407855
1.16168612129478
1.16168606129068
1.16168574267665
1.16168633416657
1.16168639774379
1.16168641122846
1.16168641662974
1.16168641821631
1.16168641862539
1.16168641872706
1.16168641875582
1.16168641876885
1.16168641877938
1.16168641879068
1.16168641880329
1.16168641881706
1.16168641883197
1.16168641884788
1.1616864188647
1.16168641888225
1.16168641890039
1.16168641891896
1.16168641893788
1.16168641895708
1.16168641897643
1.16168641899583
1.16168641901517
1.1616864190344
1.16168641905346
1.16168641907221
1.16168641909065
1.16168641910871
1.16168641912635
1.16168641914357
1.16168641916031
1.16168641917652
1.16168641919219
1.16168641920737
1.16168641922197
1.16168641923603
1.1616864192496
1.16168641926266
1.1616864192752
1.16168641928721
1.16168641929817
1.16168641930523
1.16168641929748
1.16168641922899
1.16168641890565
1.16168641752569
1.16168641225706
1.16168639840327
1.16168631831699
1.16168643689287
1.16168645192969
1.16168645500717
1.16168645622403
1.16168645658935
1.16168645668729
1.16168645671499
1.16168645672689
1.16168645673636
1.16168645674644
1.16168645675781
1.1616864567705
1.16168645678439
1.16168645679937
1.16168645681531
1.16168645683209
1.16168645684956
1.1616864568676
1.1616864568861
1.16168645690492
1.16168645692398
1.16168645694318
1.16168645696242
1.1616864569816
1.16168645700067
1.16168645701953
1.16168645703812
1.16168645705638
1.16168645707427
1.16168645709174
1.16168645710875
1.16168645712527
1.16168645714126
1.16168645715672
1.16168645717165
1.161686457186
1.16168645719981
1.16168645721308
1.16168645722581
1.16168645723804
1.16168645724975
1.16168645726085
1.16168645727069
1.16168645727676
1.16168645726858
1.16168645720211
1.16168645689747
1.16168645572561
1.16168645261382
1.16168643336252
1.161686439458
1.16168644288223
1.16168644356967
1.16168644383641
1.1616864439191
1.16168644394409
1.16168644395453
1.16168644396263
1.1616864439714
1.16168644398146
1.16168644399291
1.16168644400565
1.16168644401956
1.16168644403454
1.16168644405043
1.16168644406713
1.16168644408451
1.16168644410244
1.1616864441208
1.16168644413949
1.1616864441584
1.16168644417743
1.16168644419649
1.1616864442155
1.16168644423437
1.16168644425304
1.16168644427143
1.1616864442895
1.16168644430718
1.16168644432443
1.16168644434123
1.16168644435752
1.16168644437329
1.16168644438852
1.16168644440319
1.1616864444173
1.16168644443085
1.16168644444384
1.16168644445629
1.16168644446821
1.16168644447961
1.16168644449049
1.16168644450069
1.16168644450965
1.16168644451503
1.16168644450713
1.16168644444695
1.16168644419826
1.16168644351811
1.16168643906691
1.16168641938863
1.16168642014274
1.16168642029356
1.1616864203512
1.16168642037089
1.16168642037955
1.16168642038625
1.16168642039366
1.1616864204024
1.16168642041255
1.16168642042407
1.16168642043684
1.16168642045076
1.16168642046569
1.16168642048153
1.16168642049814
1.1616864205154
1.1616864205332
1.16168642055142
1.16168642056995
1.1616864205887
1.16168642060755
1.16168642062643
1.16168642064524
1.16168642066391
1.16168642068237
1.16168642070055
1.1616864207184
1.16168642073586
1.16168642075289
1.16168642076946
1.16168642078552
1.16168642080105
1.16168642081603
1.16168642083045
1.1616864208443
1.16168642085758
1.16168642087029
1.16168642088245
1.16168642089406
1.16168642090513
1.16168642091568
1.16168642092568
1.16168642093497
1.16168642094304
1.16168642094776
1.16168642094095
1.16168642089335
1.16168642075004
1.16168641975654
1.16168639436585
1.1616863945269
1.16168639455996
1.16168639457304
1.16168639457934
1.16168639458466
1.16168639459074
1.16168639459817
1.16168639460703
1.16168639461729
1.16168639462887
1.16168639464167
1.16168639465558
1.16168639467047
1.16168639468623
1.16168639470275
1.16168639471989
1.16168639473755
1.16168639475562
1.16168639477398
1.16168639479254
1.16168639481121
1.16168639482989
1.16168639484849
1.16168639486695
1.16168639488519
1.16168639490315
1.16168639492077
1.161686394938
1.1616863949548
1.16168639497111
1.16168639498693
1.16168639500221
1.16168639501693
1.16168639503109
1.16168639504467
1.16168639505767
1.16168639507009
1.16168639508194
1.16168639509323
1.16168639510397
1.16168639511417
1.16168639512382
1.16168639513287
1.16168639514118
1.16168639514825
1.16168639515241
1.16168639514706
1.16168639511941
1.16168639490567
1.16168636828975
1.16168636832314
1.16168636833106
1.16168636833511
1.16168636833889
1.16168636834374
1.1616863683499
1.16168636835749
1.1616863683665
1.16168636837687
1.16168636838851
1.16168636840133
1.16168636841522
1.16168636843006
1.16168636844575
1.16168636846216
1.16168636847917
1.16168636849669
1.16168636851459
1.16168636853278
1.16168636855115
1.16168636856962
1.16168636858809
1.16168636860648
1.16168636862471
1.16168636864273
1.16168636866045
1.16168636867783
1.16168636869482
1.16168636871136
1.16168636872743
1.16168636874299
1.161686368758
1.16168636877246
1.16168636878634
1.16168636879964
1.16168636881235
1.16168636882447
1.161686368836
1.16168636884696
1.16168636885736
1.1616863688672
1.16168636887647
1.16168636888515
1.16168636889316
1.16168636890037
1.1616863689064
1.16168636890941
1.16168636890593
1.16168636886256
1.1616863419958
1.16168634200255
1.1616863420054
1.1616863420079
1.16168634201145
1.16168634201643
1.16168634202281
1.16168634203059
1.16168634203975
1.16168634205022
1.16168634206192
1.16168634207476
1.16168634208862
1.16168634210341
1.16168634211901
1.1616863421353
1.16168634215219
1.16168634216955
1.16168634218728
1.16168634220528
1.16168634222346
1.16168634224172
1.16168634225997
1.16168634227814
1.16168634229614
1.16168634231391
1.1616863423314
1.16168634234853
1.16168634236526
1.16168634238155
1.16168634239735
1.16168634241264
1.16168634242738
1.16168634244156
1.16168634245516
1.16168634246816
1.16168634248057
1.16168634249238
1.16168634250359
1.16168634251421
1.16168634252426
1.16168634253372
1.16168634254261
1.16168634255088
1.1616863425585
1.16168634256537
1.16168634257141
1.16168634257573
1.16168634257701
1.16168634256971
1.16168631565833
1.16168631565977
1.16168631566179
1.16168631566425
1.16168631566802
1.16168631567326
1.16168631567987
1.16168631568785
1.16168631569715
1.16168631570772
1.16168631571947
1.16168631573231
1.16168631574615
1.16168631576087
1.16168631577638
1.16168631579256
1.1616863158093
1.16168631582651
1.16168631584406
1.16168631586187
1.16168631587985
1.16168631589789
1.16168631591592
1.16168631593385
1.16168631595161
1.16168631596914
1.16168631598637
1.16168631600324
1.16168631601971
1.16168631603573
1.16168631605127
1.16168631606628
1.16168631608074
1.16168631609463
1.16168631610793
1.16168631612063
1.16168631613273
1.16168631614422
1.1616863161551
1.16168631616538
1.16168631617506
1.16168631618415
1.16168631619263
1.1616863162005
1.16168631620769
1.16168631621416
1.16168631621983
1.16168631622407
1.16168631622606
1.16168631622609
1.16168628931282
1.16168628931334
1.16168628931539
1.1616862893181
1.16168628932217
1.16168628932767
1.16168628933451
1.16168628934267
1.16168628935211
1.16168628936277
1.16168628937457
1.16168628938741
1.16168628940122
1.16168628941588
1.16168628943129
1.16168628944735
1.16168628946395
1.16168628948098
1.16168628949836
1.16168628951597
1.16168628953373
1.16168628955155
1.16168628956935
1.16168628958704
1.16168628960456
1.16168628962183
1.1616862896388
1.16168628965541
1.16168628967161
1.16168628968735
1.16168628970261
1.16168628971733
1.1616862897315
1.1616862897451
1.1616862897581
1.16168628977049
1.16168628978227
1.16168628979343
1.16168628980397
1.16168628981389
1.16168628982321
1.16168628983191
1.16168628984
1.16168628984746
1.16168628985423
1.16168628986027
1.16168628986551
1.16168628986941
1.1616862898713
1.16168628987267
1.16168626296627
1.16168626296675
1.161686262969
1.161686262972
1.16168626297635
1.16168626298211
1.16168626298917
1.16168626299751
1.16168626300708
1.16168626301782
1.16168626302966
1.16168626304251
1.16168626305628
1.16168626307087
1.16168626308618
1.16168626310211
1.16168626311856
1.16168626313542
1.16168626315261
1.16168626317002
1.16168626318757
1.16168626320516
1.16168626322272
1.16168626324016
1.16168626325742
1.16168626327444
1.16168626329114
1.16168626330748
1.1616862633234
1.16168626333886
1.16168626335383
1.16168626336826
1.16168626338214
1.16168626339543
1.16168626340812
1.16168626342019
1.16168626343165
1.16168626344247
1.16168626345266
1.16168626346223
1.16168626347117
1.16168626347949
1.16168626348718
1.16168626349422
1.16168626350057
1.16168626350619
1.16168626351101
1.16168626351454
1.16168626351618
1.16168626351767
1.16168623661997
1.16168623662056
1.16168623662304
1.16168623662632
1.16168623663095
1.16168623663695
1.16168623664422
1.16168623665273
1.16168623666242
1.16168623667324
1.16168623668512
1.16168623669797
1.16168623671169
1.16168623672621
1.16168623674142
1.16168623675722
1.16168623677352
1.16168623679021
1.1616862368072
1.1616862368244
1.16168623684173
1.16168623685909
1.1616862368764
1.1616862368936
1.1616862369106
1.16168623692735
1.16168623694378
1.16168623695984
1.16168623697548
1.16168623699065
1.16168623700532
1.16168623701946
1.16168623703303
1.16168623704602
1.16168623705839
1.16168623707014
1.16168623708126
1.16168623709175
1.16168623710159
1.16168623711079
1.16168623711936
1.16168623712729
1.16168623713457
1.1616862371412
1.16168623714714
1.16168623715234
1.16168623715675
1.1616862371599
1.16168623716126
1.16168623716263
1.16168621027407
1.1616862102748
1.1616862102775
1.16168621028105
1.16168621028595
1.16168621029218
1.16168621029964
1.16168621030831
1.16168621031813
1.16168621032903
1.16168621034094
1.16168621035378
1.16168621036746
1.1616862103819
1.161686210397
1.16168621041267
1.16168621042881
1.16168621044533
1.16168621046212
1.16168621047912
1.16168621049622
1.16168621051334
1.16168621053041
1.16168621054735
1.16168621056409
1.16168621058056
1.16168621059672
1.16168621061249
1.16168621062785
1.16168621064273
1.1616862106571
1.16168621067094
1.1616862106842
1.16168621069687
1.16168621070892
1.16168621072035
1.16168621073113
1.16168621074127
1.16168621075076
1.1616862107596
1.16168621076778
1.16168621077532
1.1616862107822
1.16168621078841
1.16168621079393
1.16168621079872
1.16168621080273
1.16168621080551
1.16168621080661
1.16168621080782
1.16168618392851
1.16168618392938
1.16168618393229
1.1616861839361
1.16168618394125
1.16168618394771
1.16168618395537
1.16168618396419
1.16168618397412
1.16168618398509
1.16168618399703
1.16168618400986
1.1616861840235
1.16168618403787
1.16168618405286
1.16168618406839
1.16168618408437
1.16168618410071
1.16168618411731
1.16168618413409
1.16168618415096
1.16168618416784
1.16168618418466
1.16168618420134
1.16168618421781
1.16168618423402
1.16168618424989
1.16168618426538
1.16168618428044
1.16168618429503
1.1616861843091
1.16168618432263
1.16168618433558
1.16168618434793
1.16168618435967
1.16168618437076
1.1616861843812
1.16168618439099
1.16168618440012
1.16168618440859
1.16168618441639
1.16168618442353
1.16168618443001
1.16168618443581
1.16168618444091
1.1616861844453
1.16168618444891
1.16168618445134
1.16168618445217
1.16168618445321
1.16168615758319
1.1616861575842
1.16168615758732
1.16168615759138
1.16168615759677
1.16168615760344
1.16168615761128
1.16168615762026
1.1616861576303
1.16168615764134
1.16168615765331
1.16168615766613
1.16168615767973
1.16168615769401
1.16168615770889
1.16168615772429
1.16168615774011
1.16168615775626
1.16168615777266
1.16168615778923
1.16168615780587
1.16168615782251
1.16168615783908
1.1616861578555
1.1616861578717
1.16168615788763
1.16168615790322
1.16168615791842
1.16168615793319
1.16168615794748
1.16168615796125
1.16168615797447
1.16168615798711
1.16168615799914
1.16168615801054
1.1616861580213
1.1616861580314
1.16168615804084
1.16168615804961
1.1616861580577
1.16168615806512
1.16168615807186
1.16168615807793
1.16168615808332
1.16168615808801
1.161686158092
1.16168615809521
1.16168615809729
1.16168615809786
1.16168615809875
1.161686131238
1.16168613123914
1.16168613124247
1.16168613124677
1.1616861312524
1.16168613125928
1.1616861312673
1.16168613127643
1.16168613128658
1.16168613129768
1.16168613130968
1.16168613132249
1.16168613133604
1.16168613135024
1.16168613136501
1.16168613138027
1.16168613139593
1.1616861314119
1.1616861314281
1.16168613144445
1.16168613146086
1.16168613147726
1.16168613149358
1.16168613150974
1.16168613152567
1.16168613154132
1.16168613155663
1.16168613157154
1.16168613158601
1.1616861316
1.16168613161347
1.16168613162638
1.1616861316387
1.16168613165041
1.16168613166148
1.16168613167191
1.16168613168167
1.16168613169075
1.16168613169916
1.16168613170687
1.16168613171391
1.16168613172025
1.16168613172592
1.16168613173089
1.16168613173517
1.16168613173875
1.16168613174158
1.16168613174332
1.16168613174363
1.16168613174435
1.16168610489283
1.16168610489411
1.16168610489763
1.16168610490217
1.16168610490803
1.16168610491512
1.16168610492332
1.16168610493259
1.16168610494285
1.16168610495402
1.16168610496604
1.16168610497884
1.16168610499234
1.16168610500646
1.16168610502112
1.16168610503625
1.16168610505174
1.16168610506753
1.16168610508354
1.16168610509967
1.16168610511585
1.16168610513201
1.16168610514807
1.16168610516397
1.16168610517963
1.161686105195
1.16168610521003
1.16168610522465
1.16168610523883
1.16168610525252
1.16168610526568
1.16168610527827
1.16168610529028
1.16168610530167
1.16168610531242
1.1616861053225
1.16168610533192
1.16168610534065
1.16168610534869
1.16168610535604
1.16168610536268
1.16168610536863
1.16168610537388
1.16168610537845
1.16168610538232
1.1616861053855
1.16168610538794
1.16168610538933
1.16168610538939
1.16168610538995
1.16168607854757
1.16168607854898
1.1616860785527
1.16168607855748
1.16168607856357
1.16168607857086
1.16168607857924
1.16168607858866
1.16168607859902
1.16168607861026
1.16168607862231
1.16168607863509
1.16168607864854
1.16168607866258
1.16168607867714
1.16168607869212
1.16168607870746
1.16168607872307
1.16168607873887
1.16168607875479
1.16168607877075
1.16168607878666
1.16168607880247
1.16168607881811
1.1616860788335
1.1616860788486
1.16168607886334
1.16168607887768
1.16168607889156
1.16168607890495
1.1616860789178
1.16168607893009
1.16168607894178
1.16168607895285
1.16168607896327
1.16168607897302
1.16168607898209
1.16168607899047
1.16168607899815
1.16168607900512
1.16168607901138
1.16168607901693
1.16168607902178
1.16168607902593
1.16168607902938
1.16168607903217
1.16168607903422
1.16168607903527
1.16168607903507
1.16168607903547
1.16168605220211
1.16168605220366
1.16168605220757
1.16168605221259
1.16168605221892
1.16168605222641
1.16168605223497
1.16168605224453
1.16168605225499
1.1616860522663
1.16168605227837
1.16168605229115
1.16168605230455
1.16168605231852
1.16168605233296
1.16168605234781
1.16168605236299
1.16168605237842
1.16168605239403
1.16168605240973
1.16168605242546
1.16168605244114
1.1616860524567
1.16168605247208
1.1616860524872
1.16168605250203
1.16168605251649
1.16168605253054
1.16168605254413
1.16168605255722
1.16168605256977
1.16168605258175
1.16168605259313
1.16168605260387
1.16168605261397
1.16168605262339
1.16168605263212
1.16168605264015
1.16168605264746
1.16168605265406
1.16168605265993
1.16168605266509
1.16168605266953
1.16168605267326
1.16168605267631
1.16168605267869
1.16168605268036
1.16168605268106
1.1616860526806
1.16168605268084
1.16168602585634
1.16168602585803
1.16168602586215
1.1616860258674
1.16168602587397
1.16168602588166
1.1616860258904
1.1616860259001
1.16168602591068
1.16168602592205
1.16168602593415
1.16168602594692
1.16168602596028
1.16168602597416
1.1616860259885
1.16168602600322
1.16168602601824
1.1616860260335
1.16168602604891
1.16168602606441
1.16168602607991
1.16168602609535
1.16168602611067
1.16168602612579
1.16168602614065
1.1616860261552
1.16168602616939
1.16168602618315
1.16168602619645
1.16168602620925
1.1616860262215
1.16168602623318
1.16168602624424
1.16168602625467
1.16168602626444
1.16168602627353
1.16168602628193
1.1616860262896
1.16168602629656
1.16168602630279
1.16168602630828
1.16168602631304
1.16168602631707
1.16168602632039
1.16168602632303
1.16168602632501
1.16168602632628
1.16168602632663
1.16168602632591
1.161686026326
1.16168599951017
1.16168599951199
1.16168599951631
1.16168599952182
1.16168599952862
1.16168599953652
1.16168599954544
1.16168599955529
1.16168599956598
1.16168599957742
1.16168599958955
1.16168599960231
1.16168599961563
1.16168599962944
1.16168599964367
1.16168599965826
1.16168599967313
1.16168599968822
1.16168599970344
1.16168599971872
1.16168599973401
1.16168599974922
1.16168599976429
1.16168599977916
1.16168599979376
1.16168599980805
1.16168599982196
1.16168599983544
1.16168599984846
1.16168599986097
1.16168599987292
1.1616859998843
1.16168599989506
1.16168599990517
1.16168599991463
1.16168599992339
1.16168599993145
1.16168599993878
1.16168599994538
1.16168599995124
1.16168599995635
1.16168599996071
1.16168599996434
1.16168599996725
1.16168599996947
1.16168599997104
1.16168599997192
1.16168599997192
1.16168599997094
1.16168599997085
1.16168597316347
1.16168597316544
1.16168597316997
1.16168597317573
1.16168597318278
1.1616859731909
1.16168597320001
1.16168597321
1.1616859732208
1.16168597323231
1.16168597324448
1.16168597325723
1.16168597327051
1.16168597328425
1.16168597329838
1.16168597331285
1.16168597332757
1.16168597334248
1.16168597335752
1.1616859733726
1.16168597338767
1.16168597340266
1.16168597341749
1.16168597343211
1.16168597344646
1.16168597346048
1.16168597347412
1.16168597348733
1.16168597350007
1.16168597351229
1.16168597352396
1.16168597353504
1.1616859735455
1.16168597355531
1.16168597356444
1.16168597357289
1.16168597358061
1.16168597358761
1.16168597359385
1.16168597359935
1.16168597360408
1.16168597360805
1.16168597361128
1.16168597361378
1.16168597361558
1.16168597361674
1.16168597361721
1.16168597361685
1.1616859736156
1.16168597361534
1.16168594681615
1.16168594681827
1.16168594682302
1.16168594682904
1.16168594683635
1.16168594684469
1.16168594685399
1.16168594686415
1.16168594687505
1.16168594688664
1.16168594689884
1.16168594691159
1.16168594692484
1.16168594693851
1.16168594695255
1.16168594696689
1.16168594698147
1.16168594699622
1.16168594701107
1.16168594702596
1.16168594704082
1.16168594705558
1.16168594707018
1.16168594708456
1.16168594709866
1.16168594711243
1.16168594712581
1.16168594713875
1.16168594715121
1.16168594716316
1.16168594717454
1.16168594718533
1.16168594719549
1.161685947205
1.16168594721383
1.16168594722196
1.16168594722936
1.16168594723602
1.16168594724192
1.16168594724705
1.16168594725141
1.161685947255
1.16168594725782
1.1616859472599
1.16168594726129
1.16168594726204
1.16168594726209
1.16168594726135
1.16168594725982
1.1616859472594
1.16168592046811
1.16168592047038
1.16168592047536
1.16168592048167
1.16168592048925
1.16168592049782
1.16168592050732
1.16168592051763
1.16168592052866
1.16168592054032
1.16168592055256
1.16168592056532
1.16168592057853
1.16168592059213
1.16168592060608
1.16168592062031
1.16168592063475
1.16168592064934
1.16168592066401
1.16168592067871
1.16168592069337
1.16168592070791
1.16168592072229
1.16168592073643
1.16168592075029
1.16168592076381
1.16168592077693
1.16168592078961
1.16168592080181
1.16168592081348
1.16168592082459
1.1616859208351
1.16168592084497
1.16168592085419
1.16168592086272
1.16168592087053
1.16168592087762
1.16168592088395
1.16168592088951
1.16168592089429
1.16168592089828
1.16168592090148
1.1616859209039
1.16168592090558
1.16168592090654
1.16168592090687
1.1616859209065
1.16168592090537
1.16168592090355
1.16168592090294
1.16168589411922
1.16168589412167
1.16168589412689
1.1616858941335
1.16168589414138
1.16168589415019
1.16168589415989
1.16168589417037
1.16168589418152
1.16168589419327
1.16168589420555
1.16168589421831
1.16168589423149
1.16168589424504
1.1616858942589
1.16168589427301
1.16168589428732
1.16168589430176
1.16168589431627
1.16168589433078
1.16168589434523
1.16168589435957
1.16168589437373
1.16168589438765
1.16168589440127
1.16168589441455
1.16168589442742
1.16168589443985
1.16168589445179
1.1616858944632
1.16168589447404
1.16168589448427
1.16168589449387
1.1616858945028
1.16168589451103
1.16168589451855
1.16168589452532
1.16168589453133
1.16168589453656
1.161685894541
1.16168589454462
1.16168589454744
1.16168589454947
1.16168589455073
1.16168589455128
1.16168589455118
1.16168589455036
1.16168589454882
1.16168589454671
1.1616858945459
1.1616858677694
1.16168586777203
1.16168586777752
1.16168586778446
1.16168586779266
1.16168586780172
1.16168586781163
1.16168586782228
1.16168586783356
1.16168586784539
1.16168586785772
1.16168586787049
1.16168586788365
1.16168586789714
1.16168586791092
1.16168586792493
1.16168586793911
1.1616858679534
1.16168586796775
1.16168586798208
1.16168586799635
1.16168586801048
1.16168586802443
1.16168586803813
1.16168586805153
1.16168586806457
1.16168586807721
1.16168586808939
1.16168586810108
1.16168586811224
1.16168586812281
1.16168586813278
1.16168586814211
1.16168586815076
1.16168586815872
1.16168586816594
1.16168586817242
1.16168586817812