/*--------------------------------*- C++ -*----------------------------------*\
  =========                 |
  \\      /  F ield         | OpenFOAM: The Open Source CFD Toolbox
   \\    /   O peration     | Website:  https://openfoam.org
    \\  /    A nd           | Version:  10
     \\/     M anipulation  |
\*---------------------------------------------------------------------------*/
FoamFile
{
    format      ascii;
    class       volScalarField;
    location    "1.8";
    object      T;
}
// * * * * * * * * * * * * * * * * * * * * * * * * * * * * * * * * * * * * * //

dimensions      [0 0 0 1 0 0 0];

internalField   nonuniform List<scalar> 
2500
(
305.259990510564
305.185539804163
305.157784643908
305.151310924151
305.149938302237
305.149645350419
305.149583145566
305.149568772875
305.149563956172
305.149562297671
305.149560288318
305.149558953825
305.149558133284
305.149557079417
305.149556097849
305.149554994762
305.14955443123
305.149553722152
305.149552919339
305.149552346395
305.149551733891
305.149550952239
305.149550218626
305.149550146088
305.149550046315
305.14954957423
305.149549528373
305.149549418041
305.149549134878
305.149549376389
305.149549628453
305.149549688065
305.149550023918
305.149550503718
305.149550966029
305.149551359821
305.149551796011
305.149552162276
305.149552933709
305.149553673218
305.149554643545
305.149556336095
305.149560976894
305.149578415484
305.149654304286
305.149976566454
305.151389823653
305.157873357445
305.186041612661
305.259976828181
302.712429202711
302.57512892242
302.493326010277
302.469721625299
302.463560939268
302.462028097292
302.461670633777
302.461592876445
302.461576682021
302.461573448982
302.461572313326
302.461571815913
302.461571630884
302.461571355675
302.461571092009
302.46157078505
302.461570606616
302.461570398599
302.461570179673
302.461569969662
302.461569571449
302.461568982696
302.46156832123
302.4615683343
302.461568382168
302.461567980995
302.461568106236
302.461568095913
302.46156776419
302.461568141735
302.461568253519
302.461567846447
302.461568471333
302.461569355996
302.461569653118
302.461569769406
302.461569863716
302.461569941694
302.461570154252
302.46157045159
302.461571581561
302.461576571667
302.461599077075
302.461698240941
302.462112685733
302.463745439525
302.469948184459
302.493345377315
302.576608402963
302.716080034662
301.158783360031
301.049321268228
300.98126968476
300.960296656411
300.954727127181
300.953318812565
300.952983693112
300.952909480974
300.952894171591
300.952891313454
300.952890524967
300.952890330386
300.952890493103
300.952890512322
300.952890536056
300.952890509462
300.952890506082
300.952890497805
300.952890459021
300.952890426287
300.952890263778
300.952890005967
300.952889728196
300.952889650537
300.952889674379
300.952889614822
300.952889578822
300.952889622025
300.952889662307
300.952889770069
300.952889739923
300.952889504586
300.952889836761
300.952890411235
300.952890519635
300.952890465947
300.952890435232
300.952890399576
300.952890379253
300.952890324211
300.95289111998
300.952895576527
300.952915565896
300.953003919783
300.953372946783
300.954828627438
300.960377934647
300.981246211678
301.050798879237
301.165999953735
300.428284785037
300.368602899881
300.337314087004
300.32729760652
300.32470381901
300.324062673242
300.323910768475
300.323876771711
300.323869675929
300.323868423361
300.323868104265
300.32386803467
300.323868158551
300.32386821987
300.32386827672
300.323868299243
300.323868294332
300.323868304496
300.323868325358
300.323868327828
300.32386828941
300.32386821203
300.323868102401
300.323868066106
300.323868093132
300.323868088475
300.323868058896
300.323868092958
300.323868156233
300.323868183035
300.323868163398
300.323868066276
300.323868197373
300.32386843682
300.32386847422
300.323868431171
300.323868394755
300.323868368958
300.323868337893
300.323868260977
300.323868443875
300.323870205139
300.323878482217
300.323915338587
300.324072611241
300.324713829291
300.327276450651
300.337314351197
300.369505967315
300.434251050289
300.141298176378
300.11549802287
300.104293025849
300.10051585465
300.099540637374
300.099302401981
300.099246022772
300.099233255121
300.099230554976
300.099230095122
300.099229982992
300.099229962766
300.099230022179
300.099230060088
300.099230093528
300.099230109596
300.099230107467
300.099230113893
300.099230131604
300.099230136572
300.099230129313
300.099230109925
300.099230069732
300.099230064134
300.099230082076
300.099230082429
300.099230069161
300.099230083632
300.099230114758
300.099230123287
300.099230116252
300.099230084184
300.09923012664
300.099230204349
300.099230208888
300.099230193335
300.099230182771
300.099230162747
300.09923014105
300.099230120069
300.099230143589
300.099230709616
300.099233566235
300.099246340817
300.099301523062
300.099531749588
300.100481447805
300.104269139958
300.115888634767
300.144644932648
300.042563892153
300.03306651328
300.02962100711
300.028393726112
300.028073049729
300.02799495506
300.027976474219
300.027972249633
300.027971346038
300.027971195276
300.027971160736
300.027971156756
300.027971180287
300.027971196884
300.027971210945
300.027971217355
300.027971216787
300.02797121946
300.027971227373
300.027971229648
300.02797122842
300.027971223725
300.027971213103
300.027971215012
300.027971221115
300.027971221199
300.027971217093
300.02797122148
300.027971232566
300.027971237436
300.027971234942
300.027971225196
300.027971237713
300.027971257337
300.027971257055
300.027971253441
300.027971249359
300.027971239643
300.027971227063
300.027971218844
300.027971221725
300.027971388113
300.027972274383
300.027976253763
300.027993517608
300.028066547208
300.028373315723
300.02960055564
300.033199866804
300.044047990194
300.011903942445
300.008800965561
300.007841752569
300.007482734755
300.007386983542
300.007363587721
300.007358049018
300.007356775293
300.007356500302
300.007356453551
300.007356445441
300.007356446952
300.00735645403
300.007356459965
300.007356464829
300.007356466904
300.00735646693
300.007356467842
300.007356470642
300.007356471465
300.007356471075
300.007356470058
300.007356467919
300.007356469337
300.007356471147
300.007356471398
300.007356470629
300.007356471044
300.007356474131
300.007356476631
300.007356475913
300.007356473397
300.00735647659
300.00735648093
300.007356480466
300.007356479487
300.007356478044
300.007356474373
300.007356469222
300.007356466302
300.007356466935
300.007356512106
300.007356767508
300.007357917257
300.007362901664
300.007384130214
300.007474029202
300.007831608384
300.00883870559
300.012463439447
300.003129989505
300.002205889259
300.001956146878
300.001859052888
300.001832515678
300.001825979841
300.001824431295
300.00182407416
300.001823996287
300.001823983138
300.001823981847
300.00182398263
300.001823984714
300.001823986572
300.001823988057
300.001823988665
300.001823988765
300.001823989035
300.001823989857
300.001823990089
300.001823990056
300.001823989953
300.001823989565
300.001823990112
300.001823990529
300.001823990536
300.001823990487
300.001823990476
300.001823991309
300.001823992201
300.001823992113
300.001823991607
300.001823992264
300.001823993022
300.001823992757
300.001823992482
300.001823992039
300.001823990846
300.001823989147
300.001823988021
300.0018239884
300.001824000286
300.00182406952
300.001824382407
300.001825734729
300.001831505107
300.001855970494
300.001952275606
300.002214830955
300.003316954372
300.000781263995
300.000525770281
300.000463707777
300.000439000515
300.000432074208
300.000430349111
300.000429939748
300.000429845293
300.000429824612
300.000429821268
300.000429821072
300.000429821269
300.000429821857
300.000429822386
300.0004298228
300.000429822968
300.000429823024
300.000429823097
300.000429823311
300.000429823401
300.000429823419
300.000429823421
300.000429823383
300.000429823544
300.00042982362
300.0004298236
300.000429823642
300.000429823655
300.000429823851
300.000429824077
300.000429824071
300.000429823972
300.00042982407
300.000429824162
300.000429824062
300.000429823972
300.000429823867
300.000429823568
300.000429823137
300.000429822878
300.000429822979
300.000429825828
300.000429843693
300.000429924644
300.000430273102
300.000431758124
300.000438033823
300.000462436016
300.00052747449
300.000838142332
300.000186531216
300.000120081169
300.000105177571
300.000099188437
300.000097468315
300.000097034127
300.000096930824
300.00009690701
300.000096901796
300.000096900979
300.000096900948
300.000096901004
300.000096901159
300.000096901298
300.000096901406
300.00009690145
300.000096901472
300.000096901491
300.000096901549
300.00009690159
300.000096901598
300.0000969016
300.000096901599
300.000096901637
300.00009690165
300.000096901637
300.000096901659
300.000096901672
300.000096901713
300.000096901759
300.000096901754
300.000096901727
300.000096901741
300.00009690175
300.000096901716
300.000096901694
300.000096901668
300.000096901599
300.000096901507
300.000096901446
300.000096901463
300.00009690213
300.000096906543
300.000096926571
300.000097012426
300.000097377197
300.000098909772
300.000104796114
300.000120293606
300.000202575539
300.000042858588
300.00002643952
300.000022956685
300.000021561397
300.000021151812
300.0000210469
300.00002102184
300.000021016072
300.00002101481
300.000021014615
300.000021014609
300.000021014624
300.000021014662
300.000021014696
300.000021014722
300.000021014733
300.00002101474
300.000021014744
300.000021014757
300.00002101477
300.000021014775
300.000021014778
300.000021014778
300.000021014785
300.000021014786
300.000021014782
300.000021014789
300.000021014794
300.000021014802
300.000021014809
300.000021014807
300.0000210148
300.000021014801
300.000021014801
300.000021014792
300.000021014788
300.000021014782
300.000021014767
300.000021014748
300.000021014734
300.000021014737
300.000021014891
300.00002101594
300.000021020699
300.000021041022
300.000021127026
300.00002148585
300.000022848732
300.000026427958
300.000047110975
300.000009523732
300.000005640135
300.000004845044
300.00000453057
300.000004436509
300.000004412047
300.000004406172
300.000004404821
300.000004404525
300.000004404477
300.000004404475
300.000004404478
300.000004404487
300.000004404494
300.000004404499
300.000004404501
300.000004404503
300.000004404503
300.000004404505
300.000004404509
300.00000440451
300.000004404511
300.000004404512
300.000004404512
300.000004404512
300.000004404511
300.000004404512
300.000004404514
300.000004404515
300.000004404516
300.000004404515
300.000004404514
300.000004404514
300.000004404514
300.000004404511
300.000004404511
300.00000440451
300.000004404507
300.000004404504
300.000004404501
300.000004404502
300.000004404538
300.00000440478
300.000004405871
300.000004410511
300.000004430059
300.000004511028
300.000004815718
300.000005620733
300.000010593255
300.00000205543
300.00000117084
300.000000993086
300.000000924151
300.000000903216
300.000000897689
300.000000896351
300.000000896042
300.000000895974
300.000000895962
300.00000089596
300.000000895959
300.00000089596
300.000000895961
300.000000895962
300.000000895961
300.000000895961
300.000000895961
300.000000895961
300.000000895961
300.000000895961
300.000000895961
300.000000895961
300.000000895961
300.00000089596
300.00000089596
300.00000089596
300.00000089596
300.000000895961
300.000000895961
300.000000895961
300.00000089596
300.00000089596
300.00000089596
300.00000089596
300.00000089596
300.000000895961
300.000000895961
300.000000895961
300.000000895961
300.000000895962
300.000000895972
300.000000896027
300.00000089627
300.000000897296
300.000000901595
300.000000919281
300.000000985377
300.000001162309
300.000002312655
300.000000432745
300.000000237793
300.000000198727
300.00000018394
300.000000179402
300.000000178187
300.000000177889
300.000000177819
300.000000177802
300.000000177798
300.000000177796
300.000000177795
300.000000177794
300.000000177793
300.000000177792
300.000000177792
300.000000177791
300.00000017779
300.00000017779
300.000000177789
300.000000177789
300.000000177788
300.000000177788
300.000000177788
300.000000177787
300.000000177787
300.000000177787
300.000000177787
300.000000177787
300.000000177787
300.000000177787
300.000000177787
300.000000177787
300.000000177787
300.000000177788
300.000000177788
300.000000177789
300.000000177789
300.00000017779
300.000000177791
300.000000177792
300.000000177796
300.000000177809
300.000000177863
300.000000178084
300.000000179004
300.000000182762
300.000000196757
300.00000023494
300.000000492256
300.000000089587
300.000000047867
300.00000003931
300.000000036162
300.000000035196
300.000000034933
300.000000034867
300.00000003485
300.000000034845
300.000000034842
300.000000034841
300.000000034839
300.000000034838
300.000000034837
300.000000034836
300.000000034835
300.000000034834
300.000000034833
300.000000034832
300.000000034832
300.000000034831
300.000000034831
300.00000003483
300.00000003483
300.00000003483
300.000000034829
300.000000034829
300.000000034829
300.000000034829
300.000000034829
300.000000034829
300.000000034829
300.000000034829
300.00000003483
300.00000003483
300.000000034831
300.000000034831
300.000000034832
300.000000034833
300.000000034834
300.000000034836
300.000000034837
300.000000034842
300.000000034855
300.000000034903
300.000000035096
300.00000003588
300.000000038817
300.000000047029
300.000000102891
300.000000018744
300.000000010061
300.00000000808
300.000000007378
300.00000000717
300.000000007113
300.000000007098
300.000000007092
300.000000007089
300.000000007087
300.000000007086
300.000000007084
300.000000007083
300.000000007081
300.00000000708
300.000000007079
300.000000007078
300.000000007078
300.000000007077
300.000000007076
300.000000007076
300.000000007075
300.000000007075
300.000000007074
300.000000007074
300.000000007074
300.000000007073
300.000000007073
300.000000007073
300.000000007073
300.000000007073
300.000000007073
300.000000007074
300.000000007074
300.000000007075
300.000000007075
300.000000007076
300.000000007077
300.000000007078
300.000000007079
300.00000000708
300.000000007082
300.000000007084
300.000000007088
300.0000000071
300.000000007141
300.000000007308
300.000000007957
300.000000009829
300.000000021622
300.000000004429
300.000000002682
300.000000002093
300.000000001895
300.000000001844
300.000000001831
300.000000001826
300.000000001823
300.00000000182
300.000000001818
300.000000001817
300.000000001815
300.000000001814
300.000000001813
300.000000001811
300.00000000181
300.000000001809
300.000000001809
300.000000001808
300.000000001807
300.000000001807
300.000000001806
300.000000001806
300.000000001805
300.000000001805
300.000000001805
300.000000001804
300.000000001804
300.000000001804
300.000000001804
300.000000001804
300.000000001804
300.000000001805
300.000000001805
300.000000001805
300.000000001806
300.000000001807
300.000000001807
300.000000001808
300.00000000181
300.000000001811
300.000000001813
300.000000001814
300.000000001817
300.000000001821
300.000000001831
300.000000001873
300.000000002058
300.000000002615
300.000000005028
300.000000001592
300.000000001267
300.000000000966
300.000000000871
300.000000000853
300.000000000848
300.000000000845
300.000000000843
300.000000000841
300.000000000839
300.000000000837
300.000000000836
300.000000000834
300.000000000833
300.000000000832
300.000000000831
300.00000000083
300.000000000829
300.000000000828
300.000000000827
300.000000000827
300.000000000826
300.000000000826
300.000000000825
300.000000000825
300.000000000825
300.000000000824
300.000000000824
300.000000000824
300.000000000824
300.000000000824
300.000000000824
300.000000000825
300.000000000825
300.000000000826
300.000000000826
300.000000000827
300.000000000828
300.000000000829
300.00000000083
300.000000000831
300.000000000833
300.000000000834
300.000000000836
300.000000000839
300.000000000843
300.000000000859
300.000000000953
300.000000001241
300.000000001705
300.00000000104
300.000000001
300.000000000758
300.000000000683
300.000000000672
300.000000000669
300.000000000667
300.000000000664
300.000000000662
300.000000000661
300.000000000659
300.000000000657
300.000000000656
300.000000000655
300.000000000653
300.000000000652
300.000000000651
300.00000000065
300.00000000065
300.000000000649
300.000000000648
300.000000000648
300.000000000647
300.000000000647
300.000000000646
300.000000000646
300.000000000646
300.000000000646
300.000000000646
300.000000000646
300.000000000646
300.000000000646
300.000000000646
300.000000000647
300.000000000647
300.000000000648
300.000000000648
300.000000000649
300.00000000065
300.000000000651
300.000000000653
300.000000000654
300.000000000656
300.000000000658
300.000000000659
300.000000000662
300.000000000674
300.000000000749
300.000000000984
300.000000001052
300.000000000933
300.00000000095
300.00000000072
300.000000000649
300.000000000639
300.000000000637
300.000000000635
300.000000000633
300.000000000631
300.000000000629
300.000000000627
300.000000000626
300.000000000624
300.000000000623
300.000000000622
300.000000000621
300.00000000062
300.000000000619
300.000000000618
300.000000000617
300.000000000617
300.000000000616
300.000000000616
300.000000000615
300.000000000615
300.000000000614
300.000000000614
300.000000000614
300.000000000614
300.000000000614
300.000000000614
300.000000000614
300.000000000615
300.000000000615
300.000000000615
300.000000000616
300.000000000617
300.000000000617
300.000000000619
300.00000000062
300.000000000621
300.000000000622
300.000000000624
300.000000000626
300.000000000628
300.00000000063
300.00000000064
300.000000000712
300.000000000936
300.000000000925
300.000000000913
300.000000000941
300.000000000713
300.000000000643
300.000000000634
300.000000000632
300.00000000063
300.000000000628
300.000000000626
300.000000000624
300.000000000622
300.000000000621
300.000000000619
300.000000000618
300.000000000617
300.000000000616
300.000000000615
300.000000000614
300.000000000613
300.000000000612
300.000000000611
300.000000000611
300.00000000061
300.00000000061
300.000000000609
300.000000000609
300.000000000609
300.000000000609
300.000000000609
300.000000000609
300.000000000609
300.000000000609
300.000000000609
300.00000000061
300.00000000061
300.000000000611
300.000000000611
300.000000000612
300.000000000613
300.000000000614
300.000000000616
300.000000000617
300.000000000619
300.00000000062
300.000000000622
300.000000000624
300.000000000635
300.000000000706
300.000000000927
300.0000000009
300.000000000909
300.000000000939
300.000000000712
300.000000000642
300.000000000633
300.000000000631
300.000000000629
300.000000000627
300.000000000625
300.000000000623
300.000000000622
300.00000000062
300.000000000619
300.000000000617
300.000000000616
300.000000000615
300.000000000614
300.000000000613
300.000000000612
300.000000000611
300.000000000611
300.00000000061
300.00000000061
300.000000000609
300.000000000609
300.000000000609
300.000000000608
300.000000000608
300.000000000608
300.000000000608
300.000000000608
300.000000000608
300.000000000609
300.000000000609
300.000000000609
300.00000000061
300.000000000611
300.000000000612
300.000000000613
300.000000000614
300.000000000615
300.000000000616
300.000000000618
300.00000000062
300.000000000621
300.000000000623
300.000000000633
300.000000000704
300.000000000925
300.000000000895
300.000000000908
300.000000000938
300.000000000712
300.000000000642
300.000000000633
300.000000000631
300.000000000629
300.000000000627
300.000000000625
300.000000000623
300.000000000622
300.00000000062
300.000000000619
300.000000000617
300.000000000616
300.000000000615
300.000000000614
300.000000000613
300.000000000612
300.000000000611
300.000000000611
300.00000000061
300.00000000061
300.000000000609
300.000000000609
300.000000000609
300.000000000608
300.000000000608
300.000000000608
300.000000000608
300.000000000608
300.000000000608
300.000000000609
300.000000000609
300.00000000061
300.00000000061
300.000000000611
300.000000000612
300.000000000613
300.000000000614
300.000000000615
300.000000000617
300.000000000618
300.00000000062
300.000000000621
300.000000000623
300.000000000633
300.000000000704
300.000000000924
300.000000000894
300.000000000908
300.000000000938
300.000000000712
300.000000000642
300.000000000633
300.000000000631
300.000000000629
300.000000000627
300.000000000625
300.000000000624
300.000000000622
300.00000000062
300.000000000619
300.000000000618
300.000000000616
300.000000000615
300.000000000614
300.000000000613
300.000000000612
300.000000000612
300.000000000611
300.00000000061
300.00000000061
300.000000000609
300.000000000609
300.000000000609
300.000000000609
300.000000000608
300.000000000608
300.000000000608
300.000000000608
300.000000000609
300.000000000609
300.000000000609
300.00000000061
300.00000000061
300.000000000611
300.000000000612
300.000000000613
300.000000000614
300.000000000615
300.000000000617
300.000000000618
300.00000000062
300.000000000621
300.000000000623
300.000000000633
300.000000000704
300.000000000924
300.000000000893
300.000000000908
300.000000000938
300.000000000712
300.000000000642
300.000000000633
300.000000000631
300.000000000629
300.000000000627
300.000000000625
300.000000000624
300.000000000622
300.00000000062
300.000000000619
300.000000000618
300.000000000616
300.000000000615
300.000000000614
300.000000000613
300.000000000612
300.000000000612
300.000000000611
300.00000000061
300.00000000061
300.000000000609
300.000000000609
300.000000000609
300.000000000609
300.000000000608
300.000000000608
300.000000000608
300.000000000608
300.000000000609
300.000000000609
300.000000000609
300.00000000061
300.00000000061
300.000000000611
300.000000000612
300.000000000613
300.000000000614
300.000000000615
300.000000000617
300.000000000618
300.00000000062
300.000000000621
300.000000000623
300.000000000633
300.000000000704
300.000000000924
300.000000000893
300.000000000907
300.000000000938
300.000000000712
300.000000000642
300.000000000633
300.000000000631
300.000000000629
300.000000000627
300.000000000625
300.000000000624
300.000000000622
300.00000000062
300.000000000619
300.000000000617
300.000000000616
300.000000000615
300.000000000614
300.000000000613
300.000000000612
300.000000000612
300.000000000611
300.00000000061
300.00000000061
300.000000000609
300.000000000609
300.000000000609
300.000000000609
300.000000000608
300.000000000608
300.000000000608
300.000000000608
300.000000000609
300.000000000609
300.000000000609
300.00000000061
300.00000000061
300.000000000611
300.000000000612
300.000000000613
300.000000000614
300.000000000615
300.000000000617
300.000000000618
300.00000000062
300.000000000621
300.000000000623
300.000000000633
300.000000000704
300.000000000924
300.000000000893
300.000000000907
300.000000000938
300.000000000712
300.000000000642
300.000000000633
300.000000000631
300.000000000629
300.000000000627
300.000000000625
300.000000000623
300.000000000622
300.00000000062
300.000000000619
300.000000000617
300.000000000616
300.000000000615
300.000000000614
300.000000000613
300.000000000612
300.000000000611
300.000000000611
300.00000000061
300.00000000061
300.000000000609
300.000000000609
300.000000000609
300.000000000608
300.000000000608
300.000000000608
300.000000000608
300.000000000608
300.000000000608
300.000000000609
300.000000000609
300.00000000061
300.00000000061
300.000000000611
300.000000000612
300.000000000613
300.000000000614
300.000000000615
300.000000000617
300.000000000618
300.00000000062
300.000000000621
300.000000000623
300.000000000633
300.000000000704
300.000000000924
300.000000000893
300.000000000907
300.000000000938
300.000000000712
300.000000000642
300.000000000632
300.000000000631
300.000000000629
300.000000000627
300.000000000625
300.000000000623
300.000000000621
300.00000000062
300.000000000618
300.000000000617
300.000000000616
300.000000000615
300.000000000614
300.000000000613
300.000000000612
300.000000000611
300.000000000611
300.00000000061
300.000000000609
300.000000000609
300.000000000609
300.000000000608
300.000000000608
300.000000000608
300.000000000608
300.000000000608
300.000000000608
300.000000000608
300.000000000609
300.000000000609
300.000000000609
300.00000000061
300.000000000611
300.000000000612
300.000000000613
300.000000000614
300.000000000615
300.000000000616
300.000000000618
300.000000000619
300.000000000621
300.000000000623
300.000000000633
300.000000000704
300.000000000924
300.000000000893
300.000000000907
300.000000000938
300.000000000711
300.000000000642
300.000000000632
300.00000000063
300.000000000628
300.000000000626
300.000000000624
300.000000000623
300.000000000621
300.000000000619
300.000000000618
300.000000000617
300.000000000615
300.000000000614
300.000000000613
300.000000000612
300.000000000612
300.000000000611
300.00000000061
300.00000000061
300.000000000609
300.000000000609
300.000000000608
300.000000000608
300.000000000608
300.000000000608
300.000000000608
300.000000000608
300.000000000608
300.000000000608
300.000000000608
300.000000000609
300.000000000609
300.00000000061
300.00000000061
300.000000000611
300.000000000612
300.000000000613
300.000000000615
300.000000000616
300.000000000618
300.000000000619
300.000000000621
300.000000000623
300.000000000633
300.000000000704
300.000000000924
300.000000000894
300.000000000907
300.000000000938
300.000000000711
300.000000000641
300.000000000632
300.00000000063
300.000000000628
300.000000000626
300.000000000624
300.000000000622
300.00000000062
300.000000000619
300.000000000617
300.000000000616
300.000000000615
300.000000000614
300.000000000613
300.000000000612
300.000000000611
300.00000000061
300.00000000061
300.000000000609
300.000000000609
300.000000000608
300.000000000608
300.000000000608
300.000000000607
300.000000000607
300.000000000607
300.000000000607
300.000000000607
300.000000000607
300.000000000608
300.000000000608
300.000000000609
300.000000000609
300.00000000061
300.000000000611
300.000000000612
300.000000000613
300.000000000614
300.000000000616
300.000000000617
300.000000000619
300.000000000621
300.000000000623
300.000000000633
300.000000000704
300.000000000925
300.000000000894
300.000000000908
300.000000000938
300.000000000711
300.000000000641
300.000000000631
300.000000000629
300.000000000627
300.000000000625
300.000000000623
300.000000000621
300.00000000062
300.000000000618
300.000000000617
300.000000000615
300.000000000614
300.000000000613
300.000000000612
300.000000000611
300.00000000061
300.00000000061
300.000000000609
300.000000000609
300.000000000608
300.000000000608
300.000000000607
300.000000000607
300.000000000607
300.000000000607
300.000000000607
300.000000000607
300.000000000607
300.000000000607
300.000000000607
300.000000000608
300.000000000608
300.000000000609
300.000000000609
300.00000000061
300.000000000611
300.000000000612
300.000000000614
300.000000000615
300.000000000617
300.000000000619
300.00000000062
300.000000000622
300.000000000633
300.000000000704
300.000000000925
300.000000000895
300.000000000908
300.000000000938
300.000000000711
300.000000000641
300.000000000631
300.000000000629
300.000000000627
300.000000000624
300.000000000622
300.000000000621
300.000000000619
300.000000000617
300.000000000616
300.000000000615
300.000000000613
300.000000000612
300.000000000611
300.000000000611
300.00000000061
300.000000000609
300.000000000609
300.000000000608
300.000000000608
300.000000000607
300.000000000607
300.000000000607
300.000000000606
300.000000000606
300.000000000606
300.000000000606
300.000000000606
300.000000000606
300.000000000607
300.000000000607
300.000000000608
300.000000000608
300.000000000609
300.00000000061
300.000000000611
300.000000000612
300.000000000613
300.000000000615
300.000000000616
300.000000000618
300.00000000062
300.000000000622
300.000000000633
300.000000000704
300.000000000925
300.000000000895
300.000000000908
300.000000000938
300.000000000711
300.000000000641
300.00000000063
300.000000000628
300.000000000626
300.000000000624
300.000000000622
300.00000000062
300.000000000618
300.000000000616
300.000000000615
300.000000000614
300.000000000613
300.000000000612
300.000000000611
300.00000000061
300.000000000609
300.000000000608
300.000000000608
300.000000000607
300.000000000607
300.000000000606
300.000000000606
300.000000000606
300.000000000606
300.000000000606
300.000000000605
300.000000000606
300.000000000606
300.000000000606
300.000000000606
300.000000000606
300.000000000607
300.000000000607
300.000000000608
300.000000000609
300.00000000061
300.000000000611
300.000000000613
300.000000000614
300.000000000616
300.000000000618
300.00000000062
300.000000000622
300.000000000633
300.000000000705
300.000000000926
300.000000000896
300.000000000909
300.000000000939
300.000000000711
300.00000000064
300.00000000063
300.000000000627
300.000000000625
300.000000000623
300.000000000621
300.000000000619
300.000000000617
300.000000000615
300.000000000614
300.000000000613
300.000000000612
300.000000000611
300.00000000061
300.000000000609
300.000000000608
300.000000000608
300.000000000607
300.000000000606
300.000000000606
300.000000000606
300.000000000605
300.000000000605
300.000000000605
300.000000000605
300.000000000605
300.000000000605
300.000000000605
300.000000000605
300.000000000605
300.000000000606
300.000000000606
300.000000000607
300.000000000607
300.000000000608
300.000000000609
300.00000000061
300.000000000612
300.000000000613
300.000000000615
300.000000000617
300.000000000619
300.000000000622
300.000000000633
300.000000000705
300.000000000927
300.000000000897
300.00000000091
300.000000000939
300.000000000711
300.00000000064
300.000000000629
300.000000000626
300.000000000624
300.000000000622
300.000000000619
300.000000000617
300.000000000616
300.000000000614
300.000000000613
300.000000000612
300.000000000611
300.00000000061
300.000000000609
300.000000000608
300.000000000607
300.000000000607
300.000000000606
300.000000000606
300.000000000605
300.000000000605
300.000000000605
300.000000000604
300.000000000604
300.000000000604
300.000000000604
300.000000000604
300.000000000604
300.000000000604
300.000000000605
300.000000000605
300.000000000605
300.000000000606
300.000000000607