/*--------------------------------*- C++ -*----------------------------------*\
  =========                 |
  \\      /  F ield         | OpenFOAM: The Open Source CFD Toolbox
   \\    /   O peration     | Website:  https://openfoam.org
    \\  /    A nd           | Version:  10
     \\/     M anipulation  |
\*---------------------------------------------------------------------------*/
FoamFile
{
    format      ascii;
    class       volVectorField;
    location    "1.8";
    object      U;
}
// * * * * * * * * * * * * * * * * * * * * * * * * * * * * * * * * * * * * * //

dimensions      [0 1 -1 0 0 0 0];

internalField   nonuniform List<vector> 
2500
(
(-1.99202523556105e-06 -2.03196931380328e-05 4.26422941240905e-25)
(-3.56924240429835e-06 -2.12028961467029e-05 4.32671652724375e-24)
(-2.37361176045205e-06 -2.15687164368931e-05 4.55770272078608e-25)
(-1.65390520479755e-06 -2.11208236549293e-05 -3.1543801940643e-25)
(-1.24623234494759e-06 -2.0914347304444e-05 -1.12305486034721e-24)
(-1.00245158119716e-06 -2.08362841809688e-05 4.70454149848995e-25)
(-8.35176961163684e-07 -2.08078883917153e-05 6.86145967557914e-26)
(-7.34285392891686e-07 -2.07994378935342e-05 1.37052397326867e-25)
(-6.6245134888753e-07 -2.07963772574654e-05 1.06246760602472e-24)
(-6.09401364518108e-07 -2.07950840537713e-05 2.21016167832647e-25)
(-5.68438529919458e-07 -2.07943759930096e-05 -9.44988706923112e-25)
(-5.35747286937739e-07 -2.07939039605565e-05 -1.18645459330467e-24)
(-5.08780745343706e-07 -2.07935398615662e-05 1.20796502425849e-24)
(-4.85788416015185e-07 -2.07932212180339e-05 -9.79373979793429e-25)
(-4.65620277959969e-07 -2.07929231705229e-05 -8.89917289751133e-25)
(-4.4740901219803e-07 -2.07926404477077e-05 -2.47098984895545e-25)
(-4.3050531958444e-07 -2.07923587753736e-05 3.44621260412874e-25)
(-4.14431401349783e-07 -2.07920751667967e-05 -8.57301501952306e-25)
(-3.98828304686432e-07 -2.07917891181456e-05 1.92789162072548e-25)
(-3.83410964353203e-07 -2.079150078711e-05 3.49753061649144e-24)
(-3.67941804664879e-07 -2.07912138829434e-05 4.88163528018948e-25)
(-3.52227799324527e-07 -2.0790911748375e-05 8.67426620058216e-25)
(-3.36101193482107e-07 -2.07905958531909e-05 -1.51988959701982e-24)
(-3.19437071400519e-07 -2.07903009425537e-05 -1.33955269946284e-25)
(-3.02124285762375e-07 -2.07899990647205e-05 9.8302473672693e-25)
(-2.84013498568854e-07 -2.07896896709239e-05 5.65035256775206e-25)
(-2.64985548338822e-07 -2.07893840951429e-05 8.63796011684093e-25)
(-2.44917329677138e-07 -2.07890892887731e-05 -1.30755294402391e-24)
(-2.23627648429018e-07 -2.07887881169496e-05 -2.59844346187017e-24)
(-2.00975851927596e-07 -2.07885004558968e-05 3.71269848638511e-25)
(-1.76791284375752e-07 -2.07882116456551e-05 -9.16245212390218e-25)
(-1.50831668664088e-07 -2.07879333260034e-05 6.00237612470467e-25)
(-1.22836301777556e-07 -2.07876596145437e-05 -1.01289991925422e-24)
(-9.24925572693718e-08 -2.07873940216285e-05 -8.52958513278002e-25)
(-5.94236007969342e-08 -2.07871560816845e-05 4.50152562502372e-25)
(-2.31364314454391e-08 -2.07869394373018e-05 -1.16415852942822e-24)
(1.70222663856143e-08 -2.07867612561184e-05 -1.16222143978776e-24)
(6.1895260765074e-08 -2.07866403946075e-05 -2.20849818515656e-25)
(1.12649487736589e-07 -2.07866100202081e-05 -5.16780792600245e-25)
(1.7096510837315e-07 -2.07867341892175e-05 1.72014687772258e-24)
(2.39351949066874e-07 -2.07871833958952e-05 -7.70894228758371e-26)
(3.21751591229244e-07 -2.07883709734997e-05 3.2298947023681e-24)
(4.25059176147056e-07 -2.07916500493769e-05 4.11874470287003e-24)
(5.60084502062026e-07 -2.08009558200745e-05 -2.011607570996e-25)
(7.6463902807675e-07 -2.08309027016688e-05 6.6641688802049e-25)
(1.05594407675034e-06 -2.09107008326605e-05 5.00300769421754e-24)
(1.5117475682303e-06 -2.11127901373688e-05 3.59755506621642e-24)
(2.28355356761414e-06 -2.1558603066666e-05 8.10046860975248e-25)
(3.55593397289376e-06 -2.12008215278462e-05 4.8490374127745e-24)
(2.01047255764497e-06 -2.01735643651052e-05 -1.5022122953583e-25)
(-1.25801208946448e-06 -1.76807110487644e-05 1.44536502829571e-24)
(-4.61650340634956e-06 -1.85884920360138e-05 9.01650896214275e-24)
(-3.73233925645063e-06 -1.89034958310182e-05 1.57798718301989e-24)
(-2.71796656443283e-06 -1.80528631554744e-05 -9.28735556018478e-26)
(-2.32318557051627e-06 -1.76394996717162e-05 8.15266554791739e-24)
(-1.98947136769559e-06 -1.74487548921499e-05 3.75420470954032e-24)
(-1.69318631470031e-06 -1.73617713887163e-05 5.83926987114492e-25)
(-1.47396032452219e-06 -1.73201014525319e-05 8.63722766349234e-25)
(-1.29839613520754e-06 -1.72961913342148e-05 5.89809666973533e-24)
(-1.15759638356752e-06 -1.7280073871253e-05 3.73938358187652e-24)
(-1.04242848322443e-06 -1.72679586544143e-05 -2.8540211630176e-24)
(-9.46453223116431e-07 -1.72582371106169e-05 -1.31188225974832e-25)
(-8.64959410845547e-07 -1.72501425157468e-05 3.96896959166455e-24)
(-7.94542764564877e-07 -1.72431816799226e-05 -3.48069341079405e-24)
(-7.32747140316943e-07 -1.72370437799309e-05 2.52935553658845e-24)
(-6.77691405452729e-07 -1.72315707514125e-05 8.25518736453971e-25)
(-6.27913575440891e-07 -1.72266220792799e-05 6.14854013065998e-25)
(-5.82261492545733e-07 -1.72221199739837e-05 3.42364799035205e-24)
(-5.39825640182872e-07 -1.72179944026473e-05 1.89614295932726e-24)
(-4.99850202861547e-07 -1.72141936761065e-05 6.79283541431542e-24)
(-4.61674142892317e-07 -1.72107008169367e-05 2.0101746392958e-24)
(-4.24715972840019e-07 -1.72074788543757e-05 5.32754141727071e-24)
(-3.88501561147618e-07 -1.72045197764226e-05 -3.82596481524602e-25)
(-3.52588770497367e-07 -1.72018457536235e-05 7.61190234963176e-25)
(-3.16548933639189e-07 -1.71994170569655e-05 4.44839386226361e-24)
(-2.79964775131318e-07 -1.7197238918428e-05 2.06375972873573e-24)
(-2.42411200560081e-07 -1.71953365277623e-05 3.67647136544169e-24)
(-2.03455812383365e-07 -1.71937063776832e-05 -4.45790099642962e-24)
(-1.6265178602846e-07 -1.7192346054185e-05 -1.83401953433755e-24)
(-1.19528061205802e-07 -1.71912869447238e-05 3.4613660333426e-24)
(-7.35423019582133e-08 -1.71905659634721e-05 -4.26508568963869e-24)
(-2.40895156104539e-08 -1.71902068559136e-05 2.48299925167186e-24)
(2.95248588439891e-08 -1.71902330930803e-05 -4.51884303549916e-24)
(8.80930626548003e-08 -1.71907317259664e-05 -4.06999457952606e-24)
(1.52564012631156e-07 -1.71917766326325e-05 3.36323558262132e-24)
(2.24109178517459e-07 -1.7193457179706e-05 -1.01756617299209e-24)
(3.0420354479956e-07 -1.71959587296603e-05 -9.21998650426864e-25)
(3.94710513581997e-07 -1.71994878208774e-05 -8.96198831654774e-25)
(4.98078760714866e-07 -1.72043474390629e-05 -3.00490003144563e-24)
(6.1764874399649e-07 -1.72111127817369e-05 -2.07729027715869e-24)
(7.58084478832413e-07 -1.72206849526475e-05 1.05644352916999e-24)
(9.25885352505162e-07 -1.72348834985923e-05 3.34998629947989e-24)
(1.13036888654007e-06 -1.72579323194284e-05 2.82639910434604e-24)
(1.38123272618511e-06 -1.73005941258913e-05 1.5852060644918e-24)
(1.713354987675e-06 -1.73908875067204e-05 1.75012636795442e-24)
(2.1004219688894e-06 -1.75855890371548e-05 4.53171591492856e-24)
(2.54796857558383e-06 -1.79964067745083e-05 4.04602958757647e-24)
(3.61801646823979e-06 -1.88731241081386e-05 2.85021885509115e-24)
(4.68359433844578e-06 -1.85703482180224e-05 -3.637839729745e-26)
(1.36784044574977e-06 -1.75374760607998e-05 2.06465673899843e-24)
(-1.69983952793578e-06 1.63380931266679e-05 2.26348363293448e-24)
(-2.77538891720541e-06 1.69695401084321e-05 1.46107559260606e-23)
(-2.97103850110638e-06 1.44258342176045e-05 2.51042073536991e-24)
(-2.72480868661346e-06 1.40297393322776e-05 9.06842362576254e-25)
(-2.52037782331696e-06 1.3974003040266e-05 1.72740787318215e-24)
(-2.22030966008213e-06 1.4044429644278e-05 4.70676516675084e-24)
(-1.91607066879829e-06 1.41240722333764e-05 1.25370407369594e-24)
(-1.67812430524336e-06 1.41856255884687e-05 1.5970065603176e-24)
(-1.4825892699884e-06 1.42308619473399e-05 7.12170630260223e-24)
(-1.32315852724049e-06 1.42650019683504e-05 6.0736022060056e-24)
(-1.19135393806195e-06 1.42917183578135e-05 -4.43605195468227e-25)
(-1.08064253303703e-06 1.43133574715476e-05 2.40887544116295e-24)
(-9.86144620531198e-07 1.43313358681947e-05 2.39872779559271e-24)
(-9.04265736809627e-07 1.4346631966546e-05 -3.18542147443262e-24)
(-8.32274821017505e-07 1.43598998337404e-05 4.88840936162821e-24)
(-7.68090375837774e-07 1.4371551737487e-05 1.65710326972619e-24)
(-7.10094831583334e-07 1.43818945000213e-05 3.83288733887118e-24)
(-6.56964993333035e-07 1.43911350556427e-05 7.89555063397752e-24)
(-6.07635230838046e-07 1.43994337590162e-05 3.18312943788806e-24)
(-5.61225405614227e-07 1.44069038671099e-05 8.72680243915313e-24)
(-5.16971434819081e-07 1.44136242726214e-05 3.2059247774579e-24)
(-4.74202262370977e-07 1.44196614426943e-05 6.21174915687334e-24)
(-4.32342798391997e-07 1.44250286319246e-05 3.10575045201024e-24)
(-3.9084717381759e-07 1.44297746232195e-05 1.43319735081207e-24)
(-3.49207412764113e-07 1.44338987397181e-05 2.65144425220554e-24)
(-3.06939642199045e-07 1.44374090401116e-05 4.69398940632585e-24)
(-2.63528591801701e-07 1.4440305157037e-05 3.04737544728074e-24)
(-2.18477782588414e-07 1.44425761042813e-05 -4.47716450665711e-24)
(-1.71284573073973e-07 1.4444174038336e-05 1.19999742584407e-24)
(-1.21375023633679e-07 1.44450818238668e-05 3.99854007264877e-24)
(-6.81075312545181e-08 1.44452238274762e-05 -5.08169716501217e-24)
(-1.08034722167951e-08 1.44445306066093e-05 -5.04657242293124e-25)
(5.13277515407221e-08 1.4442911806145e-05 -2.68864725020644e-24)
(1.19210915798353e-07 1.44402195929582e-05 -4.1278793979407e-24)
(1.93922100298697e-07 1.44362785305237e-05 3.04179218593718e-24)
(2.76758270571358e-07 1.44308507685766e-05 2.23435728586978e-24)
(3.6935689420557e-07 1.44235708284645e-05 -2.11572585570069e-24)
(4.73779625317081e-07 1.44139837800492e-05 -1.27888424096032e-24)
(5.92654789382638e-07 1.44014123251982e-05 -2.63372795980393e-24)
(7.29523857157038e-07 1.4384787423201e-05 4.20438525548971e-24)
(8.89200444643006e-07 1.43625478237771e-05 -7.11561018871209e-25)
(1.07809976551903e-06 1.4332183576801e-05 -3.3327411025163e-26)
(1.3046999951814e-06 1.42897435586122e-05 6.58417594253117e-24)
(1.57545890646755e-06 1.42297077627309e-05 -1.95765014948612e-25)
(1.91371942801925e-06 1.41504776376868e-05 -3.02213983305552e-25)
(2.25960311385237e-06 1.40794162540815e-05 7.37600806300626e-24)
(2.50256152868073e-06 1.41263103029695e-05 5.32207329992855e-25)
(2.81182132348307e-06 1.4444446015139e-05 9.28676218742998e-25)
(2.75681807009903e-06 1.70308295717281e-05 1.02327519169262e-23)
(1.71694851381357e-06 1.63096598891682e-05 -1.74696060329986e-25)
(-2.91968060379631e-06 1.41902302750502e-05 1.89524695173695e-24)
(-2.11025740711525e-06 1.08081035245299e-05 1.81497414965401e-23)
(-2.74779661296184e-06 7.00352069610273e-06 2.04466313896595e-24)
(-2.62198582097601e-06 6.36187997843285e-06 6.21980516156833e-25)
(-2.42987007525761e-06 6.23643046679393e-06 3.37726114893952e-24)
(-2.14657843396799e-06 6.32095283565512e-06 4.21279151999284e-24)
(-1.86779373989569e-06 6.42746222515093e-06 6.39780942805353e-25)
(-1.65216196958434e-06 6.51493377660118e-06 8.2148216657168e-25)
(-1.47581368037548e-06 6.58108399585512e-06 5.75449918659083e-24)
(-1.33201469208007e-06 6.63183392198447e-06 9.40109022764269e-24)
(-1.21299957204919e-06 6.67185479472743e-06 -2.21182682184202e-24)
(-1.11289731000033e-06 6.70433274365148e-06 6.85714374217883e-24)
(-1.02732961735665e-06 6.73129967951274e-06 9.35501644158609e-24)
(-9.53044880381672e-07 6.75416496027624e-06 -2.68620836723671e-24)
(-8.87534427806708e-07 6.77389990967278e-06 1.14993987144158e-23)
(-8.28880574837061e-07 6.79112927160858e-06 1.6711720858641e-24)
(-7.75584237269667e-07 6.80632080739233e-06 8.03428457310687e-24)
(-7.26411001579206e-07 6.81981382903655e-06 1.07706044700305e-23)
(-6.80369910265855e-07 6.83183564383341e-06 2.25296527087244e-24)
(-6.36631478895244e-07 6.84256262712481e-06 1.10582849969777e-23)
(-5.94487388046223e-07 6.85212716419349e-06 1.97166382715676e-24)
(-5.53323908805319e-07 6.86061501584246e-06 5.28198313985378e-24)
(-5.12593110725012e-07 6.86809751931727e-06 6.25523960582379e-24)
(-4.71796278629119e-07 6.87462716392414e-06 1.01903574014289e-24)
(-4.30463070703406e-07 6.88020887809228e-06 4.25459111411201e-24)
(-3.88146071966671e-07 6.88485347959955e-06 7.53607419728782e-24)
(-3.44394880529129e-07 6.88857073482379e-06 3.52035956539294e-24)
(-2.98750315178935e-07 6.89131007154763e-06 -3.81164042150611e-24)
(-2.50739819366714e-07 6.89304169260502e-06 5.29025488941912e-24)
(-1.9984009626595e-07 6.89371059217261e-06 3.58735505180665e-24)
(-1.45467451297517e-07 6.89323254677552e-06 -3.96555504721464e-24)
(-8.6995923709751e-08 6.89146770355233e-06 2.31036863489628e-24)
(-2.36970218310504e-08 6.88829503818805e-06 -4.22538515976189e-24)
(4.52846074554875e-08 6.88349560068552e-06 -3.79999634420299e-24)
(1.20939783006306e-07 6.87678888828172e-06 3.49568673396704e-24)
(2.04454894656831e-07 6.86780682191425e-06 5.58968541677895e-24)
(2.97327324043061e-07 6.85603182027234e-06 -5.2267001929517e-24)
(4.01420484875225e-07 6.84078928550074e-06 -9.06354855508963e-25)
(5.19106632647619e-07 6.82105692755032e-06 -3.06475583760858e-24)
(6.53552886729938e-07 6.79532610383627e-06 3.81639703846946e-24)
(8.09007338644257e-07 6.76138964713344e-06 -5.70393334933132e-24)
(9.9111634150645e-07 6.71587942936204e-06 -6.23906189906793e-24)
(1.20738440135805e-06 6.65377411416506e-06 4.41129915355387e-24)
(1.46394931438764e-06 6.56868536466012e-06 -5.1696608076324e-24)
(1.78200765405206e-06 6.46299054362956e-06 -5.66932111582788e-24)
(2.11056248231051e-06 6.37802207109823e-06 5.5964657515536e-24)
(2.33848666064096e-06 6.49052942778089e-06 -5.86944278118608e-24)
(2.5581336642136e-06 7.05273179024825e-06 -7.17889322782937e-24)
(2.00117482469143e-06 1.09569279355754e-05 8.82954959243889e-24)
(2.83668404990948e-06 1.42808880587226e-05 -7.32246377482843e-24)
(-1.80341244603242e-06 8.700664468879e-06 5.98771687856124e-25)
(-2.13033633852692e-06 2.76459925180716e-06 6.02810009972177e-24)
(-2.83673945902695e-06 -2.80673385098753e-07 6.46503096807407e-25)
(-2.52123041053497e-06 -5.68335113248932e-07 4.528976789815e-26)
(-2.29123014969881e-06 -5.35304111430102e-07 -9.05932243518203e-25)
(-2.02517759085238e-06 -3.66479380622633e-07 1.25750759743947e-24)
(-1.77670555684598e-06 -2.14759133307818e-07 1.51943752577542e-25)
(-1.5857809863719e-06 -9.91056679555945e-08 2.00012856787221e-25)
(-1.4297157788232e-06 -1.32297151881735e-08 1.82802466632495e-24)
(-1.30185448873923e-06 5.25691157083883e-08 2.69464357352722e-24)
(-1.19551230149933e-06 1.04578329286307e-07 -8.22499438773322e-25)
(-1.10567549932012e-06 1.46847340009163e-07 1.82669634784576e-24)
(-1.02858976838468e-06 1.81982005416184e-07 2.78992938123006e-24)
(-9.61410563100803e-07 2.11761530850543e-07 -9.77762853483583e-25)
(-9.01921383279885e-07 2.37406747671095e-07 3.19823524052835e-24)
(-8.48411737745213e-07 2.5974108788214e-07 4.62303656561752e-25)
(-7.99522150034227e-07 2.79377106454741e-07 2.23642760765646e-24)
(-7.54136575134136e-07 2.96752061355209e-07 3.06990901314987e-24)
(-7.11345937200539e-07 3.12170836747866e-07 6.33589622933117e-25)
(-6.70382611989854e-07 3.25868189574652e-07 3.27394653433488e-24)
(-6.30604079096528e-07 3.38015011621252e-07 5.33226726330741e-25)
(-5.91442809531804e-07 3.48737118981506e-07 1.7211692700385e-24)
(-5.52393672462448e-07 3.58131234775627e-07 1.5833179787579e-24)
(-5.13002507694493e-07 3.66247592188634e-07 2.83897177468689e-25)
(-4.72840140675275e-07 3.73128621458234e-07 1.4043826856885e-24)
(-4.31494551379558e-07 3.78761970149081e-07 1.94456479185439e-24)
(-3.8855981880877e-07 3.83165877689788e-07 1.18292467728323e-24)
(-3.43617145229629e-07 3.86292731762545e-07 -1.26307857537379e-24)
(-2.96230930504893e-07 3.88092565022319e-07 1.36007886851683e-24)
(-2.45922761067812e-07 3.88487847901746e-07 1.15623907086831e-24)
(-1.92163902446847e-07 3.87359306782969e-07 -1.30192861191813e-24)
(-1.34381224888311e-07 3.84548464207165e-07 8.97037681253506e-25)
(-7.19054257578972e-08 3.79873577240491e-07 -1.41725684461606e-24)
(-3.96762388511593e-09 3.73056021894894e-07 -1.26333844356949e-24)
(7.03323336543429e-08 3.63726246078388e-07 1.17493399343882e-24)
(1.52063836617195e-07 3.51411820868832e-07 1.39685764371949e-24)
(2.42559291596935e-07 3.35450506595388e-07 -1.28192015365168e-24)
(3.43456806903688e-07 3.14967136666712e-07 -2.487357440532e-25)
(4.56823528096581e-07 2.88687334637831e-07 -9.23619857775622e-25)
(5.85377163623955e-07 2.54690692318117e-07 3.89196919005671e-24)
(7.32698170274717e-07 2.1022554994945e-07 -1.36977595094001e-24)
(9.03497340852501e-07 1.51033343475357e-07 -1.41751356105217e-24)
(1.10400151871057e-06 7.04582999970453e-08 4.23566948929089e-24)
(1.33987197360059e-06 -4.16687117593609e-08 -1.24934481863842e-24)
(1.63025604909505e-06 -1.91604560011289e-07 -1.48610221000388e-24)
(1.94145253951219e-06 -3.60926181468519e-07 4.54437008447955e-24)
(2.20769969235813e-06 -4.15989343971424e-07 -1.50197046136371e-24)
(2.6373925502486e-06 -2.13533589380507e-07 -1.37396243373692e-24)
(1.99592978422987e-06 2.95419010872462e-06 5.36703298052532e-24)
(1.70909563983974e-06 8.92444897952922e-06 -2.31777227710201e-24)
(-8.08070129354887e-07 5.60627466401838e-06 1.56533615891796e-25)
(-2.03904057869812e-06 -1.06184289967812e-06 2.33362301786905e-24)
(-2.70812452488503e-06 -3.56925107429652e-06 1.68788236466729e-25)
(-2.35077541114498e-06 -3.67857920101917e-06 3.41815111347009e-26)
(-2.13736461425813e-06 -3.5403818470733e-06 7.12953713636139e-25)
(-1.90891698205853e-06 -3.31266915054484e-06 1.12786821522058e-24)
(-1.69406845990662e-06 -3.12606754099931e-06 6.80361322147513e-26)
(-1.52586660369202e-06 -2.98765260862741e-06 7.1656575918144e-26)
(-1.38660216553687e-06 -2.885136032831e-06 8.39766234292683e-25)
(-1.27100503033827e-06 -2.80631432785085e-06 1.03257622944657e-24)
(-1.17384836232508e-06 -2.74372893821211e-06 -1.03502869591045e-24)
(-1.09107929985659e-06 -2.69269612640209e-06 3.5308622656191e-25)
(-1.01957211997464e-06 -2.65017735650596e-06 1.3722634927818e-24)
(-9.56896693756881e-07 -2.61410848017518e-06 -9.40556216344945e-25)
(-9.01120187333007e-07 -2.5830605445663e-06 1.39012279209125e-24)
(-8.50712425945018e-07 -2.55604623959344e-06 1.23335783174389e-25)
(-8.04442815213681e-07 -2.53233386848875e-06 4.75184162308935e-25)
(-7.61293206904418e-07 -2.51141316503476e-06 1.44020706849457e-24)
(-7.20425346875163e-07 -2.49288952491528e-06 1.88993944530274e-25)
(-6.81122824164984e-07 -2.4764882362137e-06 1.39052142768366e-24)
(-6.42779266892833e-07 -2.46200221311366e-06 1.69816411167858e-25)
(-6.04864552968859e-07 -2.44926359967422e-06 8.50468405801404e-25)
(-5.66904412550533e-07 -2.43816747820193e-06 3.64948581832363e-25)
(-5.28463344685843e-07 -2.428641760404e-06 9.39490784900838e-26)
(-4.89143148064744e-07 -2.42064184833883e-06 1.17611021460075e-24)
(-4.48553130968046e-07 -2.41415327282033e-06 4.45790092709636e-25)
(-4.06308798157078e-07 -2.40919192319809e-06 9.96319167122065e-25)
(-3.62021149044789e-07 -2.40578691117349e-06 -1.01789075178799e-24)
(-3.15269920904456e-07 -2.40401235422969e-06 3.01018371901854e-25)
(-2.65612315533598e-07 -2.40396101265512e-06 8.44412986625436e-25)
(-2.12550862981511e-07 -2.4057856543754e-06 -1.08158272280802e-24)
(-1.55545136628963e-07 -2.40966033052643e-06 1.02386790871199e-24)
(-9.39794706714028e-08 -2.41583014342048e-06 -9.04413151094658e-25)
(-2.71416043589066e-08 -2.4246194478666e-06 -1.13142056355502e-24)
(4.57969706078686e-08 -2.43646797932544e-06 8.3465949118992e-25)
(1.25809265182467e-07 -2.45194066712059e-06 3.26016659159124e-25)
(2.1407600060411e-07 -2.47183237977419e-06 -2.74111520096207e-25)
(3.12038391954897e-07 -2.49716716584125e-06 -8.15277693498265e-26)
(4.21480403530487e-07 -2.52943244793505e-06 -1.023277790306e-24)
(5.44680270788795e-07 -2.57084234946493e-06 1.60156681589249e-24)
(6.84554021151973e-07 -2.62455316461387e-06 -2.38437948023474e-25)
(8.44811747743158e-07 -2.69540656696482e-06 -2.22132859303709e-25)
(1.03013813266052e-06 -2.79110488196552e-06 1.22986544826926e-24)
(1.24475129420774e-06 -2.92400358607616e-06 -2.23765453356237e-25)
(1.50287176343836e-06 -3.10627350919255e-06 -2.59819820502096e-25)
(1.7771224874618e-06 -3.33363416827013e-06 1.6901916790904e-24)
(2.03052637700307e-06 -3.50627940699669e-06 -2.46958885350254e-25)
(2.50604605127363e-06 -3.49845295094427e-06 -2.64268968721547e-25)
(1.90649283983101e-06 -8.49259840072369e-07 2.61944879645989e-24)
(7.28019920265588e-07 5.88008219886116e-06 -5.53187848781569e-25)
(-3.58256743083118e-07 4.42573333491275e-06 5.31278431487076e-26)
(-1.77239986620834e-06 -2.29202592353097e-06 8.48365146877193e-25)
(-2.38179440096169e-06 -4.80892156730044e-06 5.57593009289993e-26)
(-2.12350630458162e-06 -4.91276658919101e-06 7.97940175722568e-27)
(-1.96631777098081e-06 -4.737796064708e-06 1.23749246309984e-25)
(-1.78888198680172e-06 -4.48084665067002e-06 2.14879957033699e-25)
(-1.61032494227461e-06 -4.27189920142729e-06 1.93976696863776e-26)
(-1.46483538168091e-06 -4.1168358933803e-06 1.97087491437192e-26)
(-1.34136994531257e-06 -4.00097134649551e-06 2.39105428140676e-25)
(-1.23683191537727e-06 -3.91113793871445e-06 5.00291267722816e-25)
(-1.14765244056811e-06 -3.83930287720172e-06 -1.6717248356515e-25)
(-1.07080052799481e-06 -3.78042644670519e-06 2.50671961664104e-25)
(-1.00381072089804e-06 -3.73119419623431e-06 4.81894430290508e-25)
(-9.44668675688043e-07 -3.6893472107842e-06 -1.28469925539303e-25)
(-8.91723318303466e-07 -3.65328641961759e-06 4.61520961531496e-25)
(-8.43635371392433e-07 -3.62190837460088e-06 5.45387246835793e-26)
(-7.99305640977032e-07 -3.59439068760559e-06 3.38661408039926e-25)
(-7.57804675888085e-07 -3.57014663997326e-06 4.89464539117108e-25)
(-7.18355403042128e-07 -3.54872209310537e-06 7.01012968832398e-26)
(-6.80296894452734e-07 -3.52980123814908e-06 4.86024950062044e-25)
(-6.43053458416443e-07 -3.51312826157753e-06 5.06211273620886e-26)
(-6.0612393412496e-07 -3.49852425827605e-06 2.25579031332593e-25)
(-5.69058899699834e-07 -3.48585373454365e-06 2.7147314187931e-25)
(-5.31444149203254e-07 -3.47502940959838e-06 2.93105053274678e-26)
(-4.9289555093305e-07 -3.46601355387623e-06 2.25075225280607e-25)
(-4.53043791661029e-07 -3.45877370862549e-06 3.14787942190169e-25)
(-4.1152335751542e-07 -3.45333059134876e-06 1.65992413744769e-25)
(-3.67955822621663e-07 -3.44972031011204e-06 -1.50067250710761e-25)
(-3.21945721765916e-07 -3.4480228608425e-06 2.91034785906838e-25)
(-2.73070484875442e-07 -3.44835936595388e-06 1.62845577850457e-25)
(-2.20857688859354e-07 -3.45089778047148e-06 -1.79796731843753e-25)
(-1.64801086684145e-07 -3.45584402765145e-06 1.76976177513893e-25)
(-1.04322753687663e-07 -3.46347965071615e-06 -1.49542981560355e-25)
(-3.87620970490329e-08 -3.47418594985294e-06 -1.9555603637326e-25)
(3.26389934764242e-08 -3.48845003177778e-06 1.55850611505729e-25)
(1.10756206428727e-07 -3.50692755685444e-06 2.79939277320647e-25)
(1.96633099048034e-07 -3.53051315316123e-06 -3.52192055789062e-25)
(2.91516876658855e-07 -3.56033730133862e-06 -2.48388183784896e-26)
(3.96904685140168e-07 -3.59805358723546e-06 -1.66041475216514e-25)
(5.14636095656164e-07 -3.64606621064539e-06 2.50413057080122e-25)
(6.46962955444671e-07 -3.70777980652098e-06 -2.82408985511513e-25)
(7.96567242932392e-07 -3.78832389972336e-06 -2.79402507880738e-25)
(9.66500232414475e-07 -3.89580137143407e-06 2.56576489526313e-25)
(1.15897037002114e-06 -4.0432457406121e-06 -3.63484281779712e-25)
(1.38202344613514e-06 -4.24518249543972e-06 -2.70718826965166e-25)
(1.60679035377438e-06 -4.5009094562883e-06 2.83102478971135e-25)
(1.80953632224196e-06 -4.72094424111682e-06 -2.87395767438361e-25)
(2.17854174968542e-06 -4.73683863415745e-06 -3.27632578566382e-25)
(1.64303008070614e-06 -2.05405886144059e-06 4.09016659193202e-25)
(2.89994103181422e-07 4.71240247613204e-06 -6.89245701516132e-25)
(-1.9844411312677e-07 4.14937595945037e-06 2.69127661654141e-26)
(-1.46332174272009e-06 -2.47625080050059e-06 2.13118279770806e-25)
(-2.00967775476548e-06 -5.23302133427402e-06 2.80855294757777e-26)
(-1.88240084276765e-06 -5.39997577412579e-06 1.04690341071298e-27)
(-1.78764446623216e-06 -5.23240151924861e-06 -9.8328491713106e-27)
(-1.66225348079624e-06 -4.96781704911792e-06 6.27021064221724e-26)
(-1.51984004405121e-06 -4.74716524480799e-06 9.98676250049425e-27)
(-1.39714721185827e-06 -4.58111530340528e-06 1.18774722641249e-26)
(-1.28941886235837e-06 -4.45517087552623e-06 8.61402509909703e-26)
(-1.1958833412576e-06 -4.35636502628795e-06 1.38792273518427e-25)
(-1.11460671510463e-06 -4.27663056683302e-06 -4.29345135607099e-26)
(-1.04358515766176e-06 -4.21083373658498e-06 6.05422359802062e-26)
(-9.81007669088457e-07 -4.15555078328393e-06 1.15430519216492e-25)
(-9.25288374612288e-07 -4.10840027911338e-06 -3.63101906039522e-26)
(-8.75072013022819e-07 -4.06769734611827e-06 1.17715961077724e-25)
(-8.29215351777936e-07 -4.03224054940696e-06 2.18657310580906e-26)
(-7.86748103926704e-07 -4.001149987591e-06 8.19949572793821e-26)
(-7.46837269382699e-07 -3.97376441163113e-06 1.23637718746798e-25)
(-7.08779387950522e-07 -3.94960007908468e-06 2.71997136512561e-26)
(-6.71957208489585e-07 -3.92828606457037e-06 1.14964344437551e-25)
(-6.35833386389037e-07 -3.9095470114304e-06 1.82883484499796e-26)
(-5.99940590129683e-07 -3.89317618096381e-06 5.10577390434819e-26)
(-5.63847963119823e-07 -3.87902078335249e-06 5.10574722564221e-26)
(-5.27165072475988e-07 -3.86698605723615e-06 1.0120346337674e-26)
(-4.89525805044144e-07 -3.85701324090577e-06 5.43859218538308e-26)
(-4.50574459478964e-07 -3.84908089669258e-06 7.06033037160685e-26)
(-4.09963724441674e-07 -3.84319503469186e-06 3.96084307474997e-26)
(-3.6733340574415e-07 -3.8394145363888e-06 -3.38843479809351e-26)
(-3.22303918666782e-07 -3.83782096376326e-06 5.83653660737545e-26)
(-2.74477748888954e-07 -3.83855031255567e-06 3.96243812164869e-26)
(-2.23407167130025e-07 -3.84179198728736e-06 -3.25453892344163e-26)
(-1.68615177303844e-07 -3.84778146647425e-06 2.85491272057733e-26)
(-1.09569135570968e-07 -3.85682722678748e-06 -4.26410349782397e-26)
(-4.5658252438742e-08 -3.8693590740463e-06 -4.20295695951437e-26)
(2.38034218716967e-08 -3.88591551538009e-06 4.07042118635464e-26)
(9.95914848688189e-08 -3.90720894869915e-06 5.62758313987983e-26)
(1.82612875610698e-07 -3.93420782902743e-06 -4.69280642458207e-26)
(2.73913234869447e-07 -3.96812369434082e-06 -5.64028481800187e-27)
(3.74700486596058e-07 -4.01071088432711e-06 -1.78041588288524e-26)
(4.8637643223278e-07 -4.06447056049036e-06 1.13854328755712e-25)
(6.10536651020914e-07 -4.13289449363296e-06 -5.07410044015532e-26)
(7.48871163361944e-07 -4.22114647064573e-06 -5.13410881920484e-26)
(9.02873387993709e-07 -4.33722325097469e-06 9.79160649660812e-26)
(1.07268381707987e-06 -4.49379558611585e-06 -4.68414236325703e-26)
(1.26066562891302e-06 -4.70526088891678e-06 -4.42203649446707e-26)
(1.43503217291383e-06 -4.96816251240834e-06 1.36195931689788e-25)
(1.58080562609947e-06 -5.18841327569316e-06 -5.0748835187851e-26)
(1.80653660776475e-06 -5.1572277432669e-06 -6.61888199222026e-26)
(1.33330099723449e-06 -2.20898683155456e-06 1.39604455264988e-25)
(1.38167933454237e-07 4.44469626881034e-06 -1.20940435388471e-25)
(-1.43393564506081e-07 4.19610537659055e-06 2.62980180624057e-26)
(-1.18915324560424e-06 -2.33538200256284e-06 1.29266837508051e-25)
(-1.67470111315936e-06 -5.3583595303954e-06 2.81853645618038e-26)
(-1.65444676047835e-06 -5.60232196701814e-06 1.37945046713772e-26)
(-1.6127793041076e-06 -5.46404443410708e-06 4.75218534996762e-26)
(-1.53332518938803e-06 -5.2055644683018e-06 6.94827523206064e-26)
(-1.4245248462226e-06 -4.9813592074621e-06 1.5352953957981e-26)
(-1.32397743272094e-06 -4.80915086600256e-06 1.81164538228859e-26)
(-1.23185435368957e-06 -4.67616334462408e-06 9.08461062867155e-26)
(-1.149453336301e-06 -4.57035652674105e-06 9.05164475370622e-26)
(-1.07629712195399e-06 -4.48405356860064e-06 -5.5314745596043e-26)
(-1.01133907958488e-06 -4.41226158199452e-06 1.06077997705964e-26)
(-9.53397478597363e-07 -4.35158250251293e-06 5.71610714511035e-26)
(-9.0130658262037e-07 -4.29961200640526e-06 -3.80527625566289e-26)
(-8.54003890927175e-07 -4.25462993445857e-06 8.62693879797366e-26)
(-8.1054183096886e-07 -4.21537541394269e-06 1.76699492275235e-26)
(-7.70088748371037e-07 -4.18092596701889e-06 2.71395168063182e-26)
(-7.31914510174533e-07 -4.15057784812027e-06 7.75701435544541e-26)
(-6.95381711592075e-07 -4.12381790213646e-06 2.45366609104381e-26)
(-6.59930576202996e-07 -4.10023119877598e-06 5.95100176058054e-26)
(-6.25065452854088e-07 -4.07952577278431e-06 1.93445731257577e-26)
(-5.90344717984355e-07 -4.06147165067895e-06 5.24843793034734e-26)
(-5.55370446411256e-07 -4.04590293187046e-06 1.57712719255094e-26)
(-5.19768545388211e-07 -4.03271564232993e-06 1.08140949395275e-26)
(-4.83193184345218e-07 -4.02183295431219e-06 5.513107797725e-26)
(-4.45312264454186e-07 -4.01323975822952e-06 2.70200099783453e-26)
(-4.05791856787081e-07 -4.00694501291197e-06 4.23610611030148e-26)
(-3.64292346571937e-07 -4.00300616199852e-06 -4.09141389002235e-26)
(-3.20455561663245e-07 -4.00151802591639e-06 7.79589699281436e-27)
(-2.73900500308868e-07 -4.00263015644412e-06 3.2061423067384e-26)
(-2.2421691484865e-07 -4.00654692654809e-06 -3.47168579942421e-26)
(-1.70960457565279e-07 -4.01352716233814e-06 2.21962377724724e-26)
(-1.13631671120846e-07 -4.02391364503837e-06 -5.3395139558024e-26)
(-5.16860571916563e-08 -4.0381673556762e-06 -4.6847070940101e-26)
(1.54909489003464e-08 -4.05686005555138e-06 3.58613543397332e-26)
(8.85758508242204e-08 -4.08075271599619e-06 1.41968588592341e-26)
(1.68331055135964e-07 -4.11085798464088e-06 -6.47305187647122e-27)
(2.55602081210196e-07 -4.14844186630948e-06 -3.94730003780875e-27)
(3.51311107234923e-07 -4.19529527267123e-06 -1.04141105202697e-26)
(4.56439046871302e-07 -4.25393075294766e-06 5.40016785040263e-26)
(5.71962587062637e-07 -4.3277901544081e-06 2.77708125251122e-28)
(6.98661049776456e-07 -4.42185099555145e-06 -2.54347943639835e-27)