/*--------------------------------*- C++ -*----------------------------------*\
  =========                 |
  \\      /  F ield         | OpenFOAM: The Open Source CFD Toolbox
   \\    /   O peration     | Website:  https://openfoam.org
    \\  /    A nd           | Version:  10
     \\/     M anipulation  |
\*---------------------------------------------------------------------------*/
FoamFile
{
    format      ascii;
    class       volScalarField;
    location    "1.8";
    object      wallHeatFlux;
}
// * * * * * * * * * * * * * * * * * * * * * * * * * * * * * * * * * * * * * //

dimensions      [1 0 -3 0 0 0 0];

internalField   uniform 0;

boundaryField
{
    back
    {
        type            calculated;
        value           uniform 0;
    }
    bottom
    {
        type            calculated;
        value           nonuniform List<scalar> 
50
(
368.859884650829
388.279827328478
395.517352288656
397.20329071428
397.559298524588
397.634231396118
397.649657510798
397.652400101588
397.652558774994
397.652518129081
397.652213956007
397.652023750647
397.651911837568
397.651741375016
397.651597916192
397.651415417531
397.651351172066
397.651246682548
397.651117146149
397.651044848676
397.651008908523
397.651041854869
397.65108602889
397.651019616026
397.650936426063
397.650948302496
397.650919166129
397.650904410011
397.650956540698
397.650893848343
397.650850870648
397.650901715283
397.650892115009
397.650870468553
397.650880454173
397.650937372108
397.651014824888
397.651066012555
397.651209361525
397.651326358901
397.651435396543
397.651418898699
397.650711912805
397.646554870277
397.627719377869
397.544256301091
397.176742025498
395.487841476049
388.141504558951
368.856885287763
)
;
    }
    left
    {
        type            calculated;
        value           uniform 0;
    }
    front
    {
        type            calculated;
        value           uniform 0;
    }
    right
    {
        type            calculated;
        value           uniform 0;
    }
    top
    {
        type            calculated;
        value           uniform 0;
    }
}


// ************************************************************************* //
