/*--------------------------------*- C++ -*----------------------------------*\
  =========                 |
  \\      /  F ield         | OpenFOAM: The Open Source CFD Toolbox
   \\    /   O peration     | Website:  https://openfoam.org
    \\  /    A nd           | Version:  10
     \\/     M anipulation  |
\*---------------------------------------------------------------------------*/
FoamFile
{
    format      ascii;
    class       volScalarField;
    location    "9.4";
    object      alphat;
}
// * * * * * * * * * * * * * * * * * * * * * * * * * * * * * * * * * * * * * //

dimensions      [1 -1 -1 0 0 0 0];

internalField   nonuniform List<scalar> 
2500
(
4.90233765163248e-15
9.66820050312804e-14
4.15468307772577e-13
7.28016031338728e-13
1.00860001739755e-12
1.2475941159238e-12
1.44119121005711e-12
1.59043413288702e-12
1.70000207813653e-12
1.77667453612319e-12
1.82786485942693e-12
1.86050854052796e-12
1.88041418580024e-12
1.89203519723199e-12
1.89853854100374e-12
1.90203146391488e-12
1.903834143672e-12
1.90472912526817e-12
1.90515697790891e-12
1.90535406377913e-12
1.90544154496834e-12
1.90547891538926e-12
1.90549419864976e-12
1.9055000410222e-12
1.90550181488358e-12
1.90550137590679e-12
1.90549850647734e-12
1.90549083567706e-12
1.90547210411552e-12
1.90542808439225e-12
1.90532802801595e-12
1.90510804505896e-12
1.90464049995948e-12
1.90368059963882e-12
1.90177879083091e-12
1.89814663229481e-12
1.8914677823612e-12
1.87965821723716e-12
1.85960407349868e-12
1.82694157229994e-12
1.77598349378515e-12
1.69992394464848e-12
1.59144158540486e-12
1.4437483965796e-12
1.25199157264958e-12
1.01474236028081e-12
7.35182512306128e-13
4.21996044699048e-13
9.92143910209905e-14
5.10125095730412e-15
4.87387110366418e-13
2.52106485093365e-11
1.10581066805726e-10
1.93876139733325e-10
2.68711183512156e-10
3.32546832104948e-10
3.84353005275586e-10
4.24379209680543e-10
4.53840692868435e-10
4.74516958502934e-10
4.88365707577625e-10
4.97227608040011e-10
5.02651494520492e-10
5.05830366306408e-10
5.07616592322679e-10
5.08580029600151e-10
5.09079423538518e-10
5.09328467085492e-10
5.09448068119773e-10
5.09503417320498e-10
5.09528103857276e-10
5.09538703163398e-10
5.09543062099417e-10
5.09544739378602e-10
5.09545253548612e-10
5.09545131811785e-10
5.09544313821346e-10
5.0954212949771e-10
5.09536815994583e-10
5.09524382665985e-10
5.09496243379768e-10
5.0943463957706e-10
5.0930425467199e-10
5.09037674402968e-10
5.08511667334979e-10
5.07511102662337e-10
5.05678458507617e-10
5.02450288089058e-10
4.96988519083283e-10
4.88123936877008e-10
4.74339559792551e-10
4.53828302531617e-10
4.2465571508838e-10
3.85038875805888e-10
3.33715866963802e-10
2.70335267064216e-10
1.95763255162308e-10
1.12293736827664e-10
2.58592229553503e-11
5.06482109353406e-13
1.73477210708962e-12
4.54555875335659e-10
1.56907878688695e-07
2.74818921705553e-07
3.80217462116827e-07
4.69876017244653e-07
5.42511100088054e-07
5.98583513002212e-07
6.39857220905808e-07
6.6884631617686e-07
6.88290703352307e-07
7.00757566981233e-07
7.08405890334634e-07
7.12900517715123e-07
7.15433495694026e-07
7.16803996291164e-07
7.17516735226449e-07
7.17873394622347e-07
7.18045288410347e-07
7.1812513327699e-07
7.18160883879849e-07
7.18176297759032e-07
7.18182666388446e-07
7.18185131067448e-07
7.18185894212098e-07
7.18185724341149e-07
7.1818453834381e-07
7.18181370084416e-07
7.18173681516695e-07
7.18155741355032e-07
7.18115253503296e-07
7.18026861586103e-07
7.17840290786328e-07
7.17459862834141e-07
7.16711207330503e-07
7.15290824190361e-07
7.12695789972712e-07
7.08135664463428e-07
7.0043758536854e-07
6.87968351995567e-07
6.68611102128062e-07
6.39842846769789e-07
5.98954124967011e-07
5.43426120918806e-07
4.71432961064289e-07
3.82378109198354e-07
2.77325278522373e-07
1.59172690314503e-07
4.65282281704551e-10
1.79300361437209e-12
3.08045627830558e-12
8.12861996979823e-10
2.81873126147909e-07
4.92408412154162e-07
6.79714103833551e-07
8.38451851701726e-07
9.66672750230194e-07
1.06544049848176e-06
1.13803305631637e-06
1.18897364891201e-06
1.22312805852193e-06
1.24502591837046e-06
1.25846388314342e-06
1.26636492544067e-06
1.2708207063531e-06
1.27323358860273e-06
1.27448963252809e-06
1.27511883818745e-06
1.27542244344253e-06
1.27556365017177e-06
1.27562696562259e-06
1.2756543082395e-06
1.27566562771048e-06
1.27567002110052e-06
1.27567139286547e-06
1.27567111201501e-06
1.27566904707857e-06
1.27566351046263e-06
1.27565006056446e-06
1.27561865698171e-06
1.27554774526954e-06
1.2753928551882e-06
1.27506577856916e-06
1.27439859122964e-06
1.2730851758232e-06
1.27059260131977e-06
1.26603756257968e-06
1.25803136626062e-06
1.24451243208057e-06
1.22260739059321e-06
1.18858557864438e-06
1.13798658294572e-06
1.06599229605384e-06
9.6807192916766e-07
8.40849504329542e-07
6.83045218495822e-07
4.96256827841184e-07
2.85306642171877e-07
8.28703311987678e-10
3.1647400564083e-12
4.41842234884296e-12
1.16656165550819e-09
4.03973603361475e-07
7.03946012723625e-07
9.69736828914105e-07
1.19425243139683e-06
1.3751443509871e-06
1.51422308659321e-06
1.61631262896806e-06
1.68789670351654e-06
1.73587471806486e-06
1.76663449275791e-06
1.78551495720559e-06
1.79662072302207e-06
1.80288747251185e-06
1.80628346217896e-06
1.80805274303035e-06
1.80893988388724e-06
1.8093683965026e-06
1.80956792982867e-06
1.80965751562477e-06
1.80969626200618e-06
1.80971233297056e-06
1.80971858836227e-06
1.80972055706415e-06
1.80972018823446e-06
1.80971731738973e-06
1.80970958863428e-06
1.80969079243339e-06
1.80964687446189e-06
1.80954764043472e-06
1.80933075612205e-06
1.80887251277351e-06
1.80793729373317e-06
1.80609541028205e-06
1.80259853954138e-06
1.79620596197781e-06
1.7849663384122e-06
1.76598129541911e-06
1.7352077249092e-06
1.68738843263316e-06
1.61622118966983e-06
1.51486529930471e-06
1.37682701163182e-06
1.19715952277546e-06
9.73781850827174e-07
7.08604804179948e-07
4.08096189151217e-07
1.18550095298791e-09
4.51988671403546e-12
5.71573649267333e-12
1.50921158030994e-09
5.21516738869549e-07
9.06639883389188e-07
1.24663255773223e-06
1.53298928850381e-06
1.76319011207171e-06
1.93989202624535e-06
2.06945652292842e-06
2.16024688542716e-06
2.22108031427564e-06
2.26008219006991e-06
2.28402725525834e-06
2.29811789589939e-06
2.30607337505788e-06
2.31038742444364e-06
2.31263677667757e-06
2.3137656367465e-06
2.31431145028532e-06
2.31456588843162e-06
2.31468027107144e-06
2.31472981690792e-06
2.31475040663321e-06
2.31475844408934e-06
2.31476099277307e-06
2.31476055734395e-06
2.31475695290586e-06
2.31474720921526e-06
2.31472348852682e-06
2.31466802977908e-06
2.31454264760437e-06
2.31426846435678e-06
2.31368885885991e-06
2.312505397247e-06
2.31017362564983e-06
2.30574503872823e-06
2.29764652911677e-06
2.28340316290763e-06
2.25933719255112e-06
2.22031460862023e-06
2.15965136929898e-06
2.06931679581084e-06
1.94055819727493e-06
1.7650001627466e-06
1.53614360424399e-06
1.25103022315173e-06
9.11696742958923e-07
5.25976341646222e-07
1.52986144266904e-09
5.82826964169091e-12
6.95231203964244e-12
1.83582800831826e-09
6.33032723225407e-07
1.09811964966937e-06
1.50735299308672e-06
1.85113221176357e-06
2.12695158657546e-06
2.33837210417202e-06
2.49324924798195e-06
2.60171908678431e-06
2.67438306360407e-06
2.72097181091813e-06
2.74958181379622e-06
2.7664244002661e-06
2.77593871942667e-06
2.78110144146041e-06
2.78379531864548e-06
2.78514842019173e-06
2.78580328307905e-06
2.78610888636698e-06
2.78624644163166e-06
2.78630611407902e-06
2.78633096013138e-06
2.78634068766257e-06
2.78634379481969e-06
2.7863433124095e-06
2.78633904570473e-06
2.78632746541482e-06
2.78629924816037e-06
2.78623324255759e-06
2.78608394376932e-06
2.78575730377569e-06
2.78506649110695e-06
2.78365536333711e-06
2.78087396029652e-06
2.77558963567201e-06
2.76592337314569e-06
2.7489181094182e-06
2.72017798483537e-06
2.67356283022609e-06
2.60107027521791e-06
2.49306751774168e-06
2.3390190689044e-06
2.12877489729858e-06
1.85433554050085e-06
1.51182782927984e-06
1.10326267375718e-06
6.37569377861139e-07
1.85718218331464e-09
7.07136330685306e-12
8.11326579445404e-12
2.14257951577576e-09
7.37361735668558e-07
1.27656823490954e-06
1.74961887054455e-06
2.14609579396757e-06
2.46364983882971e-06
2.70676582883041e-06
2.88472167527398e-06
3.00930075403241e-06
3.09274372447986e-06
3.14624747822906e-06
3.17911232945098e-06
3.19846744469402e-06
3.20940675252246e-06
3.21534640697142e-06
3.21844791045659e-06
3.22000702632174e-06
3.2207622870389e-06
3.22111511043682e-06
3.22127411271421e-06
3.22134319083433e-06
3.22137200892343e-06
3.22138332532233e-06
3.22138696585933e-06
3.22138645371733e-06
3.22138159377272e-06
3.22136835336555e-06
3.22133606588159e-06
3.22126050816153e-06
3.22108953491022e-06
3.22071532033415e-06
3.21992357132691e-06
3.21830564719487e-06
3.21511554659926e-06
3.20905291598639e-06
3.19796001272094e-06
3.17844031069052e-06
3.14544307297208e-06
3.0919098738258e-06
3.0086335446818e-06
2.88451339061548e-06
2.70737263261059e-06
2.46541220499577e-06
2.14921037733539e-06
1.75397486459819e-06
1.28157442709924e-06
7.41790179823111e-07
2.16390853447196e-09
8.23537986869189e-12
9.18799718225969e-12
2.42671375703696e-09
8.33684714950913e-07
1.44075720673575e-06
1.97195008265049e-06
2.41626090081106e-06
2.77159826549978e-06
3.04335922833123e-06
3.24215179472969e-06
3.38126932931186e-06
3.47444100283958e-06
3.53418886675759e-06
3.57089874804698e-06
3.59252675114105e-06
3.60475676675889e-06
3.61140117719715e-06
3.61487305733897e-06
3.61661971410712e-06
3.61746656435552e-06
3.61786257029043e-06
3.61804124262608e-06
3.61811897842388e-06
3.61815147058585e-06
3.61816426795783e-06
3.6181684136651e-06
3.61816788698283e-06
3.61816249945675e-06
3.61814777039292e-06
3.61811182936467e-06
3.61802769506782e-06
3.61783725259814e-06
3.61742027808296e-06
3.6165377460517e-06
3.61473370179916e-06
3.61117553752861e-06
3.60441159931048e-06
3.59203259707066e-06
3.57024527228976e-06
3.53340747782071e-06
3.47363105979418e-06
3.38061907051875e-06
3.24194039196208e-06
3.04392490710327e-06
2.77326173445018e-06
2.41920383281578e-06
1.97606256520476e-06
1.44548144231984e-06
8.37882471713056e-07
2.4475106250608e-09
9.31060344586397e-12
1.01697683668689e-11
2.68647544801983e-09
9.21507178593526e-07
1.59000463724884e-06
2.17359430494831e-06
2.66087643694683e-06
3.050082255518e-06
3.34748466645231e-06
3.56491543977568e-06
3.71703471787661e-06
3.81890862785958e-06
3.88424490533024e-06
3.92439894283326e-06
3.94806506862109e-06
3.9614539711997e-06
3.9687321020392e-06
3.97253758699112e-06
3.97445348434111e-06
3.97538316321079e-06
3.97581831708609e-06
3.97601487397972e-06
3.97610051061806e-06
3.97613637233895e-06
3.97615053822406e-06
3.97615515861969e-06
3.97615463071771e-06
3.9761487772112e-06
3.97613272359932e-06
3.97609352963206e-06
3.97600175903026e-06
3.9757939775225e-06
3.97533890341138e-06
3.97437543515766e-06
3.97240535820642e-06
3.9685186694628e-06
3.96112845256012e-06
3.94760046771667e-06
3.92378659023159e-06
3.88351554200377e-06
3.81815652379915e-06
3.71643643117345e-06
3.56473058184624e-06
3.34802499897872e-06
3.05163987547141e-06
2.66361200396171e-06
2.17739980410409e-06
1.59436784758031e-06
9.2540423743108e-07
2.70641880252461e-09
1.02910537504058e-11
1.10552505450234e-11
2.92098813948446e-09
1.00061896765006e-06
1.72409665296864e-06
2.35441198590211e-06
2.87991310462526e-06
3.29918821071567e-06
3.61933136032475e-06
3.85328360916244e-06
4.01692759202027e-06
4.12651773851356e-06
4.19681243358893e-06
4.24002511348711e-06
4.26550326020745e-06
4.27992384673524e-06
4.28776698845195e-06
4.29187041162189e-06
4.29393774238256e-06
4.29494169358865e-06
4.29541203807623e-06
4.29562471911467e-06
4.29571750543966e-06
4.29575643169482e-06
4.29577185136787e-06
4.29577691395938e-06
4.29577639564354e-06
4.29577013411284e-06
4.29575291119563e-06
4.29571084438682e-06
4.29561233114539e-06
4.29538923838674e-06
4.29490050804369e-06
4.29386550639129e-06
4.29174860608898e-06
4.28757125290508e-06
4.27962668220112e-06
4.26508128977213e-06
4.23947239194252e-06
4.19615960505628e-06
4.12585356046998e-06
4.01641503264938e-06
3.85315906710763e-06
3.61987498510837e-06
3.30065781849171e-06
2.8824439116686e-06
2.35789694706322e-06
1.72807358596831e-06
1.00418808333444e-06
2.93991110173802e-09
1.11740534646428e-11
1.18440185522953e-11
3.13012290562744e-09
1.07104804966227e-06
1.84320352920568e-06
2.51475881403064e-06
3.07391824238917e-06
3.51963701254548e-06
3.85976309029289e-06
4.10822903198979e-06
4.28199837157945e-06
4.39837089443069e-06
4.47302707915395e-06
4.5189327632628e-06
4.54600817323327e-06
4.56133939690036e-06
4.5696820184423e-06
4.57404927421365e-06
4.57625095937435e-06
4.5773209480989e-06
4.57782265910753e-06
4.57804975479903e-06
4.57814895675958e-06
4.57819064671618e-06
4.57820720524321e-06
4.57821267593303e-06
4.57821217581111e-06
4.57820556014481e-06
4.57818731340203e-06
4.57814273048707e-06
4.57803831419936e-06
4.57780181728442e-06
4.57728361457115e-06
4.57618594411965e-06
4.57394035166571e-06
4.56950810761313e-06
4.56107720844288e-06
4.54563895083707e-06
4.51845434313849e-06
4.47247090180396e-06
4.39782063032795e-06
4.2816030357601e-06
4.10820043453392e-06
3.86034738666962e-06
3.52105468168881e-06
3.07627596264138e-06
2.51794808280395e-06
1.84681064803541e-06
1.07429548960345e-06
3.14798372439586e-09
1.19597261772301e-11
1.25380522097895e-11
3.31437170583322e-09
1.13301702486542e-06
1.94780388609886e-06
2.65538249409246e-06
3.2438907747139e-06
3.71264245187346e-06
4.07016463711787e-06
4.33126421456203e-06
4.51384960308104e-06
4.63613075889088e-06
4.71458961617467e-06
4.76284564976048e-06
4.79131676988267e-06
4.80744481912735e-06
4.81622517313331e-06
4.82082404481484e-06
4.82314390511164e-06
4.82427210466724e-06
4.82480153359282e-06
4.82504140520155e-06
4.82514631480199e-06
4.8251904757849e-06
4.82520805980146e-06
4.82521390361262e-06
4.82521342820464e-06
4.82520650804153e-06
4.8251873725829e-06
4.82514060520254e-06
4.82503106664665e-06
4.82478294016134e-06
4.82423916157955e-06
4.82308708609651e-06
4.82072972008113e-06
4.81607599586709e-06
4.80722234981405e-06
4.79100771000918e-06
4.76245262296278e-06
4.71414595206583e-06
4.63571608220802e-06
4.51359978644603e-06
4.33136686846394e-06
4.07083171273967e-06
3.71405611340406e-06
3.24612718930309e-06
2.65832826842804e-06
1.95108790825001e-06
1.13597386503538e-06
3.33122542938647e-09
1.26504971129565e-11
1.31412684437186e-11
3.47472986608876e-09
1.18690398126267e-06
2.03861853201592e-06
2.77733458062789e-06
3.39117602253913e-06
3.87979342716619e-06
4.25231497100118e-06
4.52430840262345e-06
4.71449875296526e-06
4.84188018992326e-06
4.92362436370403e-06
4.97391316024636e-06
5.00359290690149e-06
5.02041195077344e-06
5.02957249903434e-06
5.03437289374048e-06
5.03679577497052e-06
5.03797483140796e-06
5.03852853732175e-06
5.0387796323744e-06
5.03888957494195e-06
5.03893592576933e-06
5.0389544249965e-06
5.038960606744e-06
5.03896016069532e-06
5.03895298135512e-06
5.03893308159784e-06
5.03888443528545e-06
5.03877049361119e-06
5.03851237241292e-06
5.03794660971238e-06
5.03674775228607e-06
5.03429423170915e-06
5.02944989395959e-06
5.02023227818167e-06
5.00334899335418e-06
4.97361332724861e-06
4.92330500859631e-06
4.8416183311016e-06
4.71441875685746e-06
4.52457535583179e-06
4.25310803013428e-06
3.88125705610598e-06
3.39335484623531e-06
2.7801063533671e-06
2.04164601686063e-06
1.1896181427583e-06
3.49070148118604e-09
1.32506263404781e-11
1.36590809293794e-11
3.61258514331059e-09
1.2332064433324e-06
2.11655090811402e-06
2.88189235840438e-06
3.51737354869093e-06
4.0229515631101e-06
4.40827765352967e-06
4.68957303902487e-06
4.88626037497459e-06
5.01800228336283e-06
5.10255790068631e-06
5.15458822441791e-06
5.1853047809399e-06
5.20271745213982e-06
5.21220514935765e-06
5.21717925926107e-06
5.21969112083075e-06
5.22091419992052e-06
5.22148897367682e-06
5.22174983797198e-06
5.22186417797844e-06
5.22191245170635e-06
5.2219317602345e-06
5.22193824512398e-06
5.22193783143825e-06
5.22193043393771e-06
5.22190988350058e-06
5.22185963722055e-06
5.22174194858717e-06
5.22147532415976e-06
5.22089085513472e-06
5.21965217624125e-06
5.2171167710461e-06
5.21211003655189e-06
5.20258220901711e-06
5.18512885554964e-06
5.15438641577362e-06
5.1023708407344e-06
5.01790602986807e-06
4.88636993955668e-06
4.69003351971425e-06
4.40923794966809e-06
4.02452021235911e-06
3.51956338782056e-06
2.88456821490914e-06
2.11939920345808e-06
1.23573567431632e-06
3.62784502055993e-09
1.37657733806353e-11
1.40979786489325e-11
3.72961038840759e-09
1.27250703676147e-06
2.18263122906624e-06
2.97048631562034e-06
3.62425219435253e-06
4.14415725652472e-06
4.54030056569067e-06
4.82945717021607e-06
5.03163864069848e-06
5.16707104443191e-06
5.25400857311793e-06
5.30751611631553e-06
5.33911331822732e-06
5.35703096385501e-06
5.36679741532997e-06
5.37191981305066e-06
5.37450778341217e-06
5.3757686016409e-06
5.37636148259291e-06
5.37663076893529e-06
5.37674891445026e-06
5.37679886062234e-06
5.37681887802416e-06
5.37682563221653e-06
5.37682525252481e-06
5.37681767369355e-06
5.37679657547157e-06
5.3767449816708e-06
5.37662413922106e-06
5.37635035923071e-06
5.37575014584086e-06
5.37447793742444e-06
5.37187355260542e-06
5.36672995010968e-06
5.35694056550119e-06
5.33900638703099e-06
5.30741455412654e-06
5.25395832446117e-06
5.16714889924086e-06
5.0319526592536e-06
4.83013549104617e-06
4.5414650716431e-06
4.14588311787169e-06
3.62652085403849e-06
2.97314581664945e-06
2.1853809886352e-06
1.27491301039132e-06
3.74435288079687e-09
1.42025849567487e-11
1.44651217413292e-11
3.82765937224476e-09
1.30544046222126e-06
2.23796326772263e-06
3.04463145437779e-06
3.71366989687705e-06
4.24554118872082e-06
4.65072156863019e-06
4.94644908760753e-06
5.1532262930332e-06
5.29174859515367e-06
5.3806826023954e-06
5.4354298937875e-06
5.46776722110465e-06
5.48610993085623e-06
5.49611142872818e-06
5.50135909887845e-06
5.50401149865731e-06
5.50530433847166e-06
5.50591262381521e-06
5.50618909743823e-06
5.50631050316223e-06
5.50636188945241e-06
5.5063825216412e-06
5.50638951272897e-06
5.50638916755522e-06
5.50638144020951e-06
5.5063598866169e-06
5.50630717177049e-06
5.50618370689168e-06
5.50590397786624e-06
5.50529067148257e-06
5.50399056656071e-06
5.50132875868152e-06
5.49607115583075e-06
5.48606380729789e-06
5.46772877643136e-06
5.4354285932463e-06
5.38077063779585e-06
5.29200510545988e-06
5.15375483154004e-06
4.94736405648394e-06
4.65212142613851e-06
4.24747076370466e-06
3.71608013555104e-06
3.04735020826942e-06
2.24069264423595e-06
1.30778409684882e-06
3.84208521301955e-09
1.456830359377e-11
1.47679610297633e-11
3.90866773405425e-09
1.33266224116877e-06
2.2836743029976e-06
3.1058628970487e-06
3.78749864248511e-06
4.32924155100152e-06
4.74188025402359e-06
5.04303429253146e-06
5.25361006300285e-06
5.39468892554829e-06
5.48527678196932e-06
5.54105244979969e-06
5.57400463819433e-06
5.5927010555144e-06
5.60289849585716e-06
5.60825080354425e-06
5.61095713650539e-06
5.61227684575141e-06
5.61289809236571e-06
5.61318063293759e-06
5.61330480173352e-06
5.61335741497136e-06
5.61337857483262e-06
5.61338577222767e-06
5.61338546125385e-06
5.61337761442848e-06
5.6133556878354e-06
5.61330205352583e-06
5.6131764384251e-06
5.61289183152082e-06
5.61226778516549e-06
5.61094478258646e-06
5.6082358079585e-06
5.60288450169994e-06
5.5926978849693e-06
5.57403299176815e-06
5.54114965443755e-06
5.4855020368607e-06
5.39512517330698e-06
5.25435867652302e-06
5.04419912166435e-06
4.74353999434037e-06
4.33141392069241e-06
3.79010535814855e-06
3.10870880294469e-06
2.28645480853512e-06
1.33500026491029e-06
3.92297055355704e-09
1.48704021112911e-11
1.5013891720193e-11
3.97456212130032e-09
1.35482011157815e-06
2.32086949984473e-06
3.15567730728424e-06
3.84755623874664e-06
4.39732878458415e-06
4.81603766961003e-06
5.12161173148765e-06
5.33528454002347e-06
5.47845020842634e-06
5.57038980165221e-06
5.62700722732171e-06
5.66046351744321e-06
5.67945044350915e-06
5.68980912907261e-06
5.69524772754012e-06
5.69799864029777e-06
5.69934061616008e-06
5.69997263503728e-06
5.70026023522723e-06
5.70038671811638e-06
5.70044036464157e-06
5.70046197237584e-06
5.70046934759599e-06
5.70046906989513e-06
5.70046112913437e-06
5.70043890249934e-06
5.70038452701126e-06
5.70025717855275e-06
5.69996863829319e-06
5.69933592553428e-06
5.69799442915305e-06
5.69524732198558e-06
5.68982018901306e-06
5.67948838212722e-06
5.66055613656893e-06
5.62719986582003e-06
5.57074924155006e-06
5.47906443652613e-06
5.33625484864466e-06
5.12303439284727e-06
4.81797513435176e-06
4.39977488531901e-06
3.85040497177137e-06
3.15870834121595e-06
2.32376341761068e-06
1.35720280817533e-06
3.98891905104289e-09
1.51162529679541e-11
1.52099510116281e-11
4.02718032477333e-09
1.37252889566611e-06
2.35059194184276e-06
3.19548162853641e-06
3.89554661863632e-06
4.45173970557642e-06
4.87530601139243e-06
5.18442038320532e-06
5.40057664181225e-06
5.54541786856955e-06
5.63844441988051e-06
5.69573983669375e-06
5.7296028922757e-06
5.74882469933753e-06
5.75931403648287e-06
5.76482271810287e-06
5.76760993056495e-06
5.76897008890567e-06
5.76961093252803e-06
5.76990269328707e-06
5.7700310879551e-06
5.77008559332491e-06
5.77010757653066e-06
5.7701151033687e-06
5.77011485762339e-06
5.77010684533739e-06
5.77008438303891e-06
5.77002942343776e-06
5.76990070815851e-06
5.76960906387679e-06
5.76896950378217e-06
5.76761337469624e-06
5.76483605240307e-06
5.75934875395689e-06
5.74890160160041e-06
5.72975672939949e-06
5.69602398509578e-06
5.63893364315578e-06
5.54620620228478e-06
5.4017671055321e-06
5.18610432255657e-06
4.87753285166799e-06
4.45448244961901e-06
3.8986731727067e-06
3.19874495139754e-06
2.35365108075495e-06
1.37499889038697e-06
4.04174632080944e-09
1.53128406636463e-11
1.53625658044037e-11
4.06820421571949e-09
1.38634937305084e-06
2.37378909966177e-06
3.22655010369923e-06
3.93300977982309e-06
4.49422223068703e-06
4.92158958701962e-06
5.23347757020875e-06
5.45158210679836e-06
5.59773986437874e-06
5.69162196559483e-06
5.74945207230401e-06
5.78363660695777e-06
5.80304448301083e-06
5.81363758445837e-06
5.81920208097112e-06
5.82201829036767e-06
5.82339302175735e-06
5.8240409649899e-06
5.82433608775164e-06
5.82446603563664e-06
5.82452124368873e-06
5.82454353715253e-06
5.82455119173902e-06
5.82455097642374e-06
5.82454291228253e-06
5.82452027112154e-06
5.82446486577137e-06
5.82433510590521e-06
5.82404108553347e-06
5.82339627285168e-06
5.82202889288528e-06
5.81922828477749e-06
5.81369451823086e-06
5.80315810611548e-06
5.78384841100803e-06
5.74982340198572e-06
5.69223580937247e-06
5.59869707694416e-06
5.45298892111243e-06
5.23542266499674e-06
4.92411218045675e-06
4.49727725998666e-06
3.93644070037497e-06
3.23008219982334e-06
2.37705461100823e-06
1.38894125674023e-06
4.08310946585706e-09
1.54665221222307e-11
1.54773519522791e-11
4.09910600683519e-09
1.39677130574056e-06
2.39128592210421e-06
3.2499897896456e-06
3.96128160061022e-06
4.52629097463465e-06
4.95653735040561e-06
5.2705293209657e-06
5.49011435637024e-06
5.63727454546723e-06
5.73180954484858e-06
5.79004871145541e-06
5.82447986911897e-06
5.8440309190421e-06
5.8547041259407e-06
5.86031186492982e-06
5.86315062689423e-06
5.86453674102405e-06
5.86519025628721e-06
5.86548803244403e-06
5.86561921455303e-06
5.86567498588883e-06
5.86569753112976e-06
5.86570529188194e-06
5.86570510542551e-06
5.86569700681075e-06
5.8656742371598e-06
5.86561850859729e-06
5.86548798895759e-06
5.86519223473616e-06
5.86454357432893e-06
5.86316791868665e-06
5.86035011373764e-06
5.85478190241119e-06
5.84417910528372e-06
5.82474646749143e-06
5.79050290302255e-06
5.73254266016221e-06
5.63839481262482e-06
5.49173238246683e-06
5.27273295409172e-06
4.95935795579538e-06
4.52966780860127e-06
3.96503521599911e-06
3.25381730554018e-06
2.39478885648054e-06
1.39951185722796e-06
4.1144556050162e-09
1.55828355743232e-11
1.55589624228689e-11
4.12110727324903e-09
1.40420043975304e-06
2.40376424080706e-06
3.26671415462236e-06
3.98146305059638e-06
4.5491931937301e-06
4.98150645734505e-06
5.29701221972217e-06
5.51766515850636e-06
5.66555051593628e-06
5.76055938197651e-06
5.81909652588332e-06
5.85370806062817e-06
5.87336428955961e-06
5.88409662686181e-06
5.8897364517379e-06
5.89259204210981e-06
5.89398670230544e-06
5.89464442983418e-06
5.89494422782074e-06
5.89507635940493e-06
5.89513256933954e-06
5.89515531390232e-06
5.89516316136529e-06
5.89516300227667e-06
5.89515488475731e-06
5.89513203182519e-06
5.89507608991743e-06
5.89494506541954e-06
5.89464815107683e-06
5.89399689560647e-06
5.89261561254722e-06
5.88978602178854e-06
5.88419403416883e-06
5.8735451206441e-06
5.85402660067187e-06
5.81962962909725e-06
5.76140674399957e-06
5.6668281034926e-06
5.51948880008196e-06
5.2994703378025e-06
4.98462442124031e-06
4.55289652451933e-06
3.98555077182953e-06
3.27085509611793e-06
2.40752650995673e-06
1.40710919313166e-06
4.1369822612142e-09
1.56663548028463e-11
1.56109787704276e-11
4.13514938249984e-09
1.40894907048333e-06
2.41174781595559e-06
3.27742388878438e-06
3.99439778593326e-06
4.56388396831128e-06
4.99753567025677e-06
5.31402553090645e-06
5.53537585425984e-06
5.68373724960791e-06
5.77905903333728e-06
5.8377942392046e-06
5.87252653782424e-06
5.89225374148635e-06
5.90302632015828e-06
5.9086881808261e-06
5.9115554417907e-06
5.91295609145882e-06
5.91361680549789e-06
5.91391805589181e-06
5.91405088016866e-06
5.9141074162342e-06
5.91413031277553e-06
5.91413822937736e-06
5.91413809635007e-06
5.91412997418348e-06
5.91410707937328e-06
5.91405102468503e-06
5.91391972833569e-06
5.91362217729019e-06
5.91296946719676e-06
5.91158496264364e-06
5.90874849195223e-06
5.90314238192774e-06
5.8924656601618e-06
5.87289467868975e-06
5.83840296184358e-06
5.78001635619991e-06
5.68516708340205e-06
5.53739980003311e-06
5.31673356501081e-06
5.00094851208261e-06
4.5679148724023e-06
3.99882537898384e-06
3.28188885470457e-06
2.41578324195544e-06
1.41203898351547e-06
4.1516082659841e-09
1.57205830383421e-11
1.56358390108168e-11
4.14187364397898e-09
1.41122966005081e-06
2.41559220265778e-06
3.28259385876279e-06
4.0006568143939e-06
4.57100915327601e-06
5.0053270533759e-06
5.32231199264354e-06
5.54401751922571e-06
5.69262482088296e-06
5.78811083873543e-06
5.84695180042521e-06
5.8817497978158e-06
5.90151639122098e-06
5.91231177709966e-06
5.91798640404467e-06
5.92086058318639e-06
5.92226487014631e-06
5.92292744546807e-06
5.92322962737521e-06
5.92336291075406e-06
5.92341967151833e-06
5.92344267786085e-06
5.92345064819484e-06
5.92345054026619e-06
5.92344242647512e-06
5.92341952781925e-06
5.92336345359062e-06
5.92323210266975e-06
5.92293440419291e-06
5.92228130576001e-06
5.92089582703272e-06
5.91805705179817e-06
5.91244580694728e-06
5.90175829062127e-06
5.88216585133639e-06
5.84763372112025e-06
5.78917488275499e-06
5.69420291572156e-06
5.54623730667118e-06
5.32526556773948e-06
5.00903131615928e-06
4.57536605693606e-06
4.00542542244032e-06
3.28738703017832e-06
2.41990737682094e-06
1.41450767004013e-06
4.1589535786979e-09
1.57478799291097e-11
1.56347928314372e-11
4.14160876123501e-09
1.41115083449027e-06
2.41547852547542e-06
3.28246523791031e-06
4.00052941933409e-06
4.57089533595762e-06
5.00523515438103e-06
5.32224639606555e-06
5.54397909199446e-06
5.69261170366236e-06
5.7881194323891e-06
5.84697773294485e-06
5.88178872629476e-06
5.90156450664276e-06
5.91236604664989e-06
5.91804459720102e-06
5.92092116799028e-06
5.92232685605405e-06
5.92299022538287e-06
5.92329284619662e-06
5.92342636864161e-06
5.92348325906503e-06
5.9235063359659e-06
5.92351434585094e-06
5.92351426234683e-06
5.92350616956876e-06
5.92348330394052e-06
5.92342730084871e-06
5.92329610696321e-06
5.92299873738635e-06
5.92234628727944e-06
5.92096201516293e-06
5.91812536611839e-06
5.91251767176681e-06
5.9018357697825e-06
5.88225171961576e-06
5.84773139503365e-06
5.78928812812409e-06
5.69433527656739e-06
5.54639126630504e-06
5.32544154475286e-06
5.00922667822614e-06
4.57557435664832e-06
4.00563598924029e-06
3.28758489988134e-06
2.42007336978752e-06
1.41461829523253e-06
4.15932649150958e-09
1.5749415597704e-11
1.56078851385769e-11
4.13436625644149e-09
1.40871585514081e-06
2.41141086790988e-06
3.27704193271974e-06
3.99401882004707e-06
4.56354490453967e-06
4.99726163491142e-06
5.31382989781683e-06
5.53526146153038e-06
5.68369871204921e-06
5.77908567497844e-06
5.83787301838373e-06
5.87264443271759e-06
5.89239931119999e-06
5.90319044119813e-06
5.9088641355027e-06
5.9117386123414e-06
5.91314349019509e-06
5.91380660044805e-06
5.91410917518066e-06
5.91424272049717e-06
5.91429964734721e-06
5.91432275635338e-06
5.91433079195964e-06
5.91433073245674e-06
5.91432267373847e-06
5.91429987892347e-06
5.91424403962048e-06
5.91411321840409e-06
5.91381666185916e-06
5.91316591107692e-06
5.91178505130228e-06
5.90895500006658e-06
5.90335960411769e-06
5.89269981366226e-06
5.87315411186923e-06
5.83869793524148e-06
5.78035814762484e-06
5.68556625295756e-06
5.53786365403113e-06
5.31726313734881e-06
5.00153562449298e-06
4.5685398966524e-06
3.9994561063663e-06
3.28248041011371e-06
2.41627845386628e-06
1.41236828188781e-06
4.15271630300094e-09
1.57251410645207e-11
1.555396371208e-11
4.11984225918748e-09
1.40382296218563e-06
2.40321657247087e-06
3.26609078950417e-06
3.98084228526198e-06
4.54863610657594e-06
4.98105529012406e-06
5.29669000661235e-06
5.51747742406662e-06
5.6654889320344e-06
5.76060657982416e-06
5.81923098107171e-06
5.85390812151976e-06
5.87361084726937e-06
5.88437439524043e-06
5.89003414983439e-06
5.892901902212e-06
5.89430369233574e-06
5.89496546136597e-06
5.89526749267297e-06
5.89540083950134e-06
5.89545770737976e-06
5.89548080914436e-06
5.89548885640179e-06
5.89548882077223e-06
5.89548081023459e-06
5.89545812665144e-06
5.89540254966726e-06
5.89527232951085e-06
5.8949770972006e-06
5.89432915283793e-06
5.89295402425601e-06
5.89013526384123e-06
5.8845613339403e-06
5.87394092204531e-06
5.85446489245019e-06
5.82012754186725e-06
5.76198300032303e-06
5.66750005497329e-06
5.52026813757302e-06
5.30035804080394e-06
4.98560592445233e-06
4.55393817507169e-06
3.98659826387411e-06
3.27183375360052e-06
2.40834236824755e-06
1.40764936781378e-06
4.13879373343394e-09
1.56737959658884e-11
1.54706973649865e-11
4.09742259911456e-09