/*--------------------------------*- C++ -*----------------------------------*\
  =========                 |
  \\      /  F ield         | OpenFOAM: The Open Source CFD Toolbox
   \\    /   O peration     | Website:  https://openfoam.org
    \\  /    A nd           | Version:  10
     \\/     M anipulation  |
\*---------------------------------------------------------------------------*/
FoamFile
{
    format      ascii;
    class       volScalarField;
    location    "9.4";
    object      h;
}
// * * * * * * * * * * * * * * * * * * * * * * * * * * * * * * * * * * * * * //

dimensions      [0 2 -2 0 0 0 0];

internalField   nonuniform List<scalar> 
2500
(
6030.68526933085
6029.57447990867
6022.01261302381
6015.45150070134
6010.82416422843
6007.79858669641
6005.89031266455
6004.71458454007
6004.00773622382
6003.5955910483
6003.36154508338
6003.23343128975
6003.16568864386
6003.13056253396
6003.11280846125
6003.10377715016
6003.09952967144
6003.09722012891
6003.09577678214
6003.09496483483
6003.09441471914
6003.09400799476
6003.09370314967
6003.09351983562
6003.09334527407
6003.0932194409
6003.09318855649
6003.09321341476
6003.09331220878
6003.09351309457
6003.09387615011
6003.09459558474
6003.09578918636
6003.09806690492
6003.10259402271
6003.11173020253
6003.13005984442
6003.1660242572
6003.23583531759
6003.36581489844
6003.60115998447
6004.01440977059
6004.71893322096
6005.88825948595
6007.78835761222
6010.80543824415
6015.44042181939
6022.0374583577
6029.62040542035
6030.61034465869
5367.82885687143
5353.87847832544
5331.42451019188
5312.72413954845
5299.46126494616
5290.67150416145
5285.03498117027
5281.50101196394
5279.33664963149
5278.04731562032
5277.30207542808
5276.88548438791
5276.6604262301
5276.54268855288
5276.48303909593
5276.45364325873
5276.43967606476
5276.43304602138
5276.42983219343
5276.42828453234
5276.42747782664
5276.42700575306
5276.42670344957
5276.42651660812
5276.42636713858
5276.42626147606
5276.42622531894
5276.42624749758
5276.42636258981
5276.42666265264
5276.42735100531
5276.42889501402
5276.43218677025
5276.43923173186
5276.45410175955
5276.48486019373
5276.54682658721
5276.66798342832
5276.89790457899
5277.3196822938
5278.06906940669
5279.35945682065
5281.51733557719
5285.03452272438
5290.64711275516
5299.42176443956
5312.72016713109
5331.54050421157
5354.08699923741
5367.42954375696
4661.07221429275
4632.40382029079
4598.37014676121
4571.22015593561
4552.20353182375
4539.67408039227
4531.66737451732
4526.65759700456
4523.59156191883
4521.76386221649
4520.70626305691
4520.11382380124
4519.79293567313
4519.62482841175
4519.53962864408
4519.49779411683
4519.47793024947
4519.46869271006
4519.46443141607
4519.46248340126
4519.46156065111
4519.46108328682
4519.46080943714
4519.46064573398
4519.46052793247
4519.46044643106
4519.46041304004
4519.46043078028
4519.46054883241
4519.46089557231
4519.46175475375
4519.46376909191
4519.4682859564
4519.47816153732
4519.4992195576
4519.54297269577
4519.6312459124
4519.80384226853
4520.13073414632
4520.72974885793
4521.79275965229
4523.62172041101
4526.68009833715
4531.67015487784
4539.65052488417
4552.17470769172
4571.2714758964
4598.64619176584
4632.9208820697
4660.90048902257
3983.13373061699
3943.86711093313
3904.62878105675
3874.61759446155
3854.08976902358
3840.8232832741
3832.49384681754
3827.36493948447
3824.27003792924
3822.4475919634
3821.40435496851
3820.8254571335
3820.5145317949
3820.35293987822
3820.27167466367
3820.23210518977
3820.21346263821
3820.20490743829
3820.20104992865
3820.19933407723
3820.19855622728
3820.19817633533
3820.19796953652
3820.19784860306
3820.19776576367
3820.19770764026
3820.19767855447
3820.19768064046
3820.1977600735
3820.19803761632
3820.19876837493
3820.20054309903
3820.20463913642
3820.21373798645
3820.23336144704
3820.2745404746
3820.35839143557
3820.52382663335
3820.83995654598
3821.4248499629
3822.47353651654
3824.29835867851
3827.38873558604
3832.50404635119
3840.81843073162
3854.10283513191
3874.7601178538
3905.09613819484
3944.76179898448
3983.65276255971
3388.2636369032
3344.88524852703
3306.13097549251
3277.64432539404
3258.65158092334
3246.63670533648
3239.23769271671
3234.75952550568
3232.0970346171
3230.54862869159
3229.67150309967
3229.18904425151
3228.93184098926
3228.7990431479
3228.73265654587
3228.70052428719
3228.68547505224
3228.67863093843
3228.67559201219
3228.67426938588
3228.67369091085
3228.6734220464
3228.67328237694
3228.67320313417
3228.67315086254
3228.67311300903
3228.67309001134
3228.67308292015
3228.67312477502
3228.67331427721
3228.67385454487
3228.67521241306
3228.67842185567
3228.68564026734
3228.70134261745
3228.73455126998
3228.80268115332
3228.93811877743
3229.19897732415
3229.68584162059
3230.56731920053
3232.11835367477
3234.7792677059
3239.25090482419
3246.64752071984
3258.70090932666
3277.85760192595
3306.73867329426
3346.09306042915
3389.55434183167
2905.63488925075
2864.22800936077
2830.1250937495
2805.96107219289
2790.26272434626
2780.54816667002
2774.68316798874
2771.19470082207
2769.15080496774
2767.97629346043
2767.31736955957
2766.9577335323
2766.76720159091
2766.66933206747
2766.62062222814
2766.59714525418
2766.58619824755
2766.58125355284
2766.57908451056
2766.57815906986
2766.57776839583
2766.57759629387
2766.57751155846
2766.57746552774
2766.57743639339
2766.57741409197
2766.57739743493
2766.57738743004
2766.57740212205
2766.57751504404
2766.57787503644
2766.57881432324
2766.58108621211
2766.58625164442
2766.59756526318
2766.62164017473
2766.67132574784
2766.7707020107
2766.96337588859
2767.32570463128
2767.98747990359
2769.16408141252
2771.20797481884
2774.69471613243
2780.56561006091
2790.3288281602
2806.20103907114
2830.78138985528
2865.58770721873
2907.48630511997
2540.82804029551
2505.50179085511
2478.19711561923
2459.49275176826
2447.64812224802
2440.47824838561
2436.23457546795
2433.75368704296
2432.32077200537
2431.50667358747
2431.05397339522
2430.80856263284
2430.67921418538
2430.61303467831
2430.58020146681
2430.56442304275
2430.55709002873
2430.55379598138
2430.55236628626
2430.55176813224
2430.55152521096
2430.55142513703
2430.55137933003
2430.55135609939
2430.55134236613
2430.55133072241
2430.5513195521
2430.5513104312
2430.55131121563
2430.55136963573
2430.55158783906
2430.55218654673
2430.55366992688
2430.55707741664
2430.56458342103
2430.58063439469
2430.6139141995
2430.68079945761
2430.81118421113
2431.05795488989
2431.51218062031
2432.32752578945
2433.76080242368
2436.24205625758
2440.49450154524
2447.71205873845
2459.71697879201
2478.81158454491
2506.83030878605
2542.90089745251
2282.40355769005
2254.92880019783
2234.76983178564
2221.38358192176
2213.11483203453
2208.21737879455
2205.37508119993
2203.74153085645
2202.81108700417
2202.2881644345
2201.99973693315
2201.84430483376
2201.76272688322
2201.72111266669
2201.70051199417
2201.69063148595
2201.6860508791
2201.68400293918
2201.68312287911
2201.68276199683
2201.68262190269
2201.68256930576
2201.68254769139
2201.68253803872
2201.682533351
2201.68252828269
2201.68252129729
2201.6825135934
2201.68250962763
2201.68253582224
2201.68265665135
2201.68301224536
2201.68391642363
2201.68601498385
2201.69066086335
2201.70063449291
2201.72138674736
2201.76324959756
2201.8452122236
2202.00117654324
2202.29022645543
2202.81365249331
2203.74421929901
2205.37841585566
2208.22858066585
2213.16536823292
2221.56566357649
2235.28181654225
2256.0847665551
2284.38064833712
2110.00118547243
2090.26587144824
2076.41000061941
2067.46989966342
2062.07836282259
2058.95243948918
2057.17304673874
2056.16741887082
2055.60238862812
2055.28811979899
2055.11608244729
2055.02385633046
2054.9756187502
2054.9510654845
2054.9389275887
2054.93311304356
2054.93042242731
2054.92922456903
2054.92871476861
2054.92851000096
2054.92843481213
2054.928410319
2054.9284015817
2054.92839866138
2054.92839879601
2054.92839748401
2054.92839343206
2054.92838764518
2054.92838295339
2054.92839220704
2054.92845387974
2054.9286522529
2054.92917098605
2054.93038794872
2054.93309451324
2054.93892268159
2054.95108046008
2054.97567282427
2055.02398503306
2055.11632846438
2055.2884984005
2055.60279778884
2056.16761066021
2057.17343029087
2058.95820737462
2062.11246488231
2067.60166650815
2076.79635631005
2091.17760219218
2111.67346147414
2001.22950083175
1988.01346831726
1979.0820752391
1973.47068576303
1970.163527684
1968.28553514611
1967.23665175415
1966.65361985629
1966.33039486616
1966.1524176811
1966.05567596875
1966.00405516769
1965.9771314164
1965.96344773223
1965.95668825988
1965.95345219362
1965.95195683603
1965.95129373243
1965.95101423486
1965.95090433393
1965.95086626848
1965.95085650079
1965.95085521741
1965.95085566904
1965.95085671967
1965.95085665244
1965.9508544899
1965.95085062646
1965.95084675384
1965.9508486266
1965.95087767236
1965.95098206484
1965.95126392702
1965.95193269958
1965.95342659475
1965.95665097261
1965.96338843729
1965.97704153683
1966.00393023935
1966.05551101456
1966.15218443147
1966.32997789784
1966.65277883014
1967.23550911999
1968.28729822111
1970.18345173707
1973.55698198319
1979.34947060661
1988.673766548
2002.51284855222
1936.0871119824
1927.77662957328
1922.34547063085
1919.01641553063
1917.09703175319
1916.02887104439
1915.44331936973
1915.12312406392
1914.94794760699
1914.85243296661
1914.80086176478
1914.77345833805
1914.75919801462
1914.75195727285
1914.74838124166
1914.74666947471
1914.74587932112
1914.74553027567
1914.74538462456
1914.74532865386
1914.74531113286
1914.74530855461
1914.74530943838
1914.74531073567
1914.74531183066
1914.74531200882
1914.74531094747
1914.74530845291
1914.74530552712
1914.7453049749
1914.74531773342
1914.74536969798
1914.745515518
1914.74586559016
1914.7466509096
1914.74834876743
1914.75189959182
1914.7591021467
1914.77331052179
1914.80064334035
1914.85210206105
1914.94738875629
1915.12209979419
1915.44172813057
1916.02841536977
1917.1070245505
1919.06806119528
1922.51681586367
1928.22008585732
1936.9940739197
1898.93063556542
1893.99521549763
1890.86414085776
1888.98845186832
1887.92942918838
1887.35147468983
1887.04038996894
1886.87301657987
1886.78264401991
1886.73384262057
1886.70766218585
1886.69380327364
1886.6866043955
1886.68295088257
1886.68114606621
1886.68028192943
1886.67988336697
1886.67970798189
1886.67963559458
1886.67960868676
1886.67960142073
1886.67960126096
1886.67960236459
1886.67960361941
1886.67960447536
1886.67960473193
1886.67960422256
1886.67960269167
1886.67960071386
1886.67959970801
1886.67960485658
1886.67962948011
1886.67970162733
1886.67987693451
1886.68027183498
1886.68112653375
1886.68291422264
1886.6865410573
1886.69370184396
1886.70750546984
1886.73359268527
1886.78220267457
1886.87217559606
1887.03894551976
1887.35017955568
1887.93353187653
1889.01685626369
1890.96655237183
1894.27356791694
1899.52715374793
1878.68453133416
1875.90306844342
1874.1845827781
1873.17682798809
1872.61906460387
1872.32036133254
1872.16243743437
1872.07882348661
1872.0342644447
1872.01043210442
1871.99772626934
1871.99102363161
1871.98754698735
1871.98578267526
1871.98491057028
1871.98449277657
1871.9843002017
1871.98421579803
1871.98418138299
1871.98416916791
1871.98416641062
1871.98416680012
1871.98416771619
1871.98416863252
1871.98416921325
1871.984169434
1871.98416919319
1871.98416830563
1871.98416708773
1871.98416626153
1871.98416813378
1871.98417929112
1871.98421356726
1871.98429787184
1871.98448853623
1871.98490141708
1871.98576449529
1871.98751449831
1871.99097004945
1871.99764003662
1872.01028552924
1872.03398454713
1872.0782491625
1872.16135704148
1872.31901997264
1872.62020086452
1873.19121322228
1874.24201273363
1876.06740835373
1879.05258438111
1868.11677432938
1866.62315019262
1865.72193130747
1865.20380569157
1864.92240488487
1864.7744213736
1864.69754061871
1864.65747851116
1864.63640687827
1864.62524413064
1864.6193291209
1864.61621885632
1864.61460734039
1864.61378930149
1864.61338455498
1864.61319049543
1864.61310109288
1864.61306207352
1864.61304637406
1864.61304109165
1864.61304016249
1864.61304057201
1864.61304119345
1864.61304177231
1864.61304212794
1864.61304227851
1864.61304216567
1864.61304167996
1864.61304098397
1864.61304042557
1864.61304101604
1864.61304589126
1864.61306158206
1864.61310064574
1864.61318932533
1864.6133813608
1864.61378229173
1864.614594192
1864.6161963649
1864.6192908169
1864.62517239358
1864.636253015
1864.65713054589
1864.69682658197
1864.77336176559
1864.9223230152
1865.21049872079
1865.75229103526
1866.71490014249
1868.33115547124
1862.81945007876
1862.05251429329
1861.59947916552
1861.34376997913
1861.2073516907
1861.13685589607
1861.1008521569
1861.08238439394
1861.0727975313
1861.06776740955
1861.06511803209
1861.06372912491
1861.06301007534
1861.06264485049
1861.06246391913
1861.06237707831
1861.06233708785
1861.06231971155
1861.06231281769
1861.06231064296
1861.06231039062
1861.0623106737
1861.06231104585
1861.06231137762
1861.0623115784
1861.06231166784
1861.06231161543
1861.06231136334
1861.06231099052
1861.06231066774
1861.06231081882
1861.06231286905
1861.06231980674
1861.06233730044
1861.06237715065
1861.06246340368
1861.06264315071
1861.06300643649
1861.06372237785
1861.06510504134
1861.06773804704
1861.07272205021
1861.08219164332
1861.10042148918
1861.13613445701
1861.20692960172
1861.34660512418
1861.61466651397
1862.1011712755
1862.93794231386
1860.26338689477
1859.88566689856
1859.66675172197
1859.54527894273
1859.48155860889
1859.44917804489
1859.43291335776
1859.42469968148
1859.42049158136
1859.41830487039
1859.41716000589
1859.41656153449
1859.41625187151
1859.41609444469
1859.41601633691
1859.41597880038
1859.41596152038
1859.4159540467
1859.41595113182
1859.41595027942
1859.41595023492
1859.41595039848
1859.41595060236
1859.41595077875
1859.41595088459
1859.41595093287
1859.41595090883
1859.41595078411
1859.41595059528
1859.41595042013
1859.41595044233
1859.41595128253
1859.41595425419
1859.41596184671
1859.41597919471
1859.41601670651
1859.41609469153
1859.41625190112
1859.41656109941
1859.41715778381
1859.4182954942
1859.42045817171
1859.42460033321
1859.43267186309
1859.4487345888
1859.48115371297
1859.54634789291
1859.67396281341
1859.91027340086
1860.32580292817
1859.07363358983
1858.89471064075
1858.79276862168
1858.73708945869
1858.70834217205
1858.69396608012
1858.68686062825
1858.68332718109
1858.6815405813
1858.6806211812
1858.6801426943
1858.67989324588
1858.67976421616
1858.67969854333
1858.67966590131
1858.6796501911
1858.67964296022
1858.67963984724
1858.67963865596
1858.67963833217
1858.6796383385
1858.67963842798
1858.67963853201
1858.67963862
1858.67963867248
1858.67963869665
1858.67963868581
1858.67963862683
1858.67963853601
1858.67963844733
1858.67963844072
1858.67963877697
1858.67964001512
1858.67964321708
1858.67965055111
1858.67966638619
1858.67969921029
1858.67976517151
1858.6798945602
1858.68014389503
1858.68061961062
1858.6815272472
1858.68327896357
1858.6867331859
1858.69371407217
1858.70805318657
1858.7374276236
1858.79602585377
1858.90661730902
1859.10508269919
1858.53836776601
1858.45665066091
1858.41080049848
1858.38612105885
1858.37356736917
1858.36738459631
1858.36437606911
1858.36290244836
1858.36216708673
1858.36179235532
1858.3615984951
1858.36149769139
1858.36144555419
1858.36141897943
1858.36140574336
1858.36139936173
1858.36139642411
1858.36139516466
1858.36139469182
1858.36139457212
1858.36139458396
1858.36139462899
1858.36139467871
1858.36139472004
1858.36139474456
1858.36139475588
1858.3613947511
1858.36139472444
1858.36139468292
1858.36139464097
1858.36139463286
1858.36139476521
1858.36139526899
1858.36139658458
1858.36139960262
1858.36140610556
1858.36141953908
1858.36144643431
1858.36149901993
1858.36160014306
1858.36179308074
1858.36216235474
1858.36288021113
1858.36431221796
1858.36725027742
1858.37338948207
1858.38619329483
1858.41220235692
1858.46217980736
1858.55357383336
1858.30518251668
1858.26911883529
1858.24916080076
1858.23856198234
1858.23324524159
1858.23066438964
1858.22942729749
1858.22883027291
1858.22853622432
1858.22838785013
1858.2283115488
1858.22827197075
1858.22825149717
1858.22824104327
1858.22823582378
1858.2282333016
1858.22823213955
1858.22823164268
1858.22823145894
1858.22823141504
1858.22823142259
1858.22823144327
1858.22823146541
1858.22823148359
1858.22823149431
1858.22823149925
1858.2282314972
1858.22823148573
1858.22823146778
1858.22823144934
1858.2282314448
1858.22823149673
1858.22823169795
1858.22823222627
1858.2282334382
1858.22823604197
1858.22824139906
1858.22825207882
1858.22827287953
1858.22831277111
1858.22838883392
1858.22853479037
1858.22882045272
1858.22939672099
1858.23059658967
1858.23314588136
1858.23855540924
1858.24973611374
1858.27158940519
1858.31225777721
1858.20664897742
1858.19123887835
1858.18281566396
1858.17839767475
1858.17621003499
1858.17516256204
1858.17466766281
1858.17443225261
1858.17431780308
1858.17426061981
1858.17423138751
1858.17421625905
1858.1742084294
1858.17420442268
1858.17420241596
1858.17420144306
1858.17420099357
1858.17420080111
1858.17420073013
1858.17420071329
1858.1742007164
1858.17420072476
1858.17420073367
1858.17420074096
1858.17420074521
1858.17420074715
1858.17420074631
1858.1742007417
1858.17420073452
1858.17420072721
1858.17420072569
1858.17420074661
1858.17420082628
1858.17420103472
1858.17420151123
1858.17420253034
1858.17420461666
1858.17420875524
1858.17421677954
1858.17423211661
1858.17426132251
1858.17431747617
1858.17442807032
1858.17465359201
1858.17512992208
1858.17615842971
1858.17837757898
1858.18304076317
1858.19230357688
1858.20982487725
1858.16620096522
1858.15981379965
1858.15636124819
1858.15457094808
1858.15369507771
1858.15328107414
1858.15308814493
1858.1529976519
1858.15295421581
1858.15293272511
1858.15292180267
1858.15291616113
1858.15291323834
1858.15291173795
1858.15291098304
1858.15291061487
1858.15291044343
1858.15291036914
1858.15291034094
1858.15291033339
1858.15291033367
1858.15291033619
1858.15291033907
1858.15291034146
1858.15291034282
1858.15291034342
1858.15291034309
1858.15291034146
1858.15291033901
1858.15291033671
1858.15291033695
1858.15291034612
1858.15291037807
1858.15291045976
1858.15291064436
1858.15291103587
1858.15291183172
1858.15291340059
1858.15291642591
1858.15292218411
1858.15293312683
1858.15295419344
1858.15299592132
1858.15308189371
1858.15326600615
1858.15366980103
1858.15455512272
1858.15644509559
1858.16025726535
1858.16757930579
1858.15004733985
1858.14747518
1858.1460987465
1858.14539246632
1858.14505077164
1858.1448912018
1858.14481780604
1858.14478384133
1858.14476774033
1858.14475984985
1858.14475586131
1858.14475380373
1858.14475273522
1858.14475218378
1858.14475190399
1858.14475176577
1858.14475170003
1858.1447516704
1858.1447516581
1858.14475165367
1858.14475165239
1858.14475165227
1858.14475165252
1858.1447516528
1858.14475165294
1858.14475165297
1858.14475165284
1858.14475165247
1858.14475165201
1858.14475165187
1858.14475165299
1858.14475165776
1858.14475167139
1858.144751704
1858.14475177549
1858.14475192439
1858.14475222338
1858.14475280735
1858.14475392523
1858.14475604118
1858.14476004978
1858.14476777023
1858.14478313912
1858.14481511314
1858.14488450161
1858.14503898773
1858.14538294906
1858.14612838207
1858.14765404283
1858.1506268765
1858.14376259714
1858.14275466279
1858.14222021552
1858.14194862571
1858.14181858358
1858.14175853514
1858.14173125224
1858.14171878725
1858.14171294779
1858.14171011132
1858.14170868368
1858.14170794664
1858.14170756168
1858.14170736078
1858.14170725694
1858.14170720406
1858.14170717754
1858.14170716438
1858.14170715782
1858.14170715441
1858.14170715244
1858.14170715119
1858.14170715034
1858.14170714975
1858.14170714934
1858.14170714913
1858.14170714911
1858.14170714926
1858.14170714962
1858.14170715036
1858.14170715186
1858.14170715502
1858.14170716175
1858.14170717579
1858.14170720443
1858.14170726167
1858.1417073737
1858.14170758885
1858.14170799581
1858.14170875961
1858.14171019917
1858.14171296879
1858.14171850375
1858.14173012171
1858.14175565362
1858.14181332003
1858.1419436172
1858.14223009119
1858.14282463925
1858.14399909431
1858.14137756729
1858.14099270062
1858.14079035893
1858.14068846416
1858.14064014088
1858.14061805804
1858.1406081374
1858.1406036575
1858.1406015807
1858.14060057882
1858.14060007506
1858.14059981333
1858.14059967454
1858.14059960017
1858.14059956003
1858.1405995381
1858.14059952582
1858.14059951862
1858.14059951409
1858.14059951101
1858.14059950875
1858.14059950704
1858.14059950574
1858.14059950481
1858.14059950419
1858.14059950389
1858.14059950392
1858.14059950426
1858.14059950495
1858.14059950604
1858.1405995077
1858.14059951027
1858.14059951445
1858.1405995216
1858.14059953435
1858.1405995577
1858.1405996009
1858.14059968093
1858.14059982873
1858.14060010173
1858.14060061113
1858.14060158697
1858.14060354045
1858.14060767121
1858.14061685398
1858.14063787618
1858.14068604585
1858.14079342433
1858.14101929784
1858.14147138946
1858.14049368239
1858.14035030843
1858.14027555243
1858.14023823888
1858.14022070204
1858.14021276296
1858.14020923098
1858.14020765098
1858.14020692363
1858.14020657315
1858.14020639541
1858.14020630103
1858.14020624899
1858.14020621931
1858.14020620174
1858.14020619082
1858.14020618361
1858.14020617853
1858.14020617472
1858.14020617175
1858.14020616938
1858.14020616749
1858.14020616604
1858.14020616497
1858.14020616428
1858.14020616395
1858.140206164
1858.14020616441
1858.14020616522
1858.14020616645
1858.14020616817
1858.14020617051
1858.14020617376
1858.14020617839
1858.14020618537
1858.14020619643
1858.14020621482
1858.14020624636
1858.14020630166
1858.14020640027
1858.14020658015
1858.14020692039
1858.1402075989
1858.14020903919
1858.14021227073
1858.14021975856
1858.14023714283
1858.14027641744
1858.14036014413
1858.14052992084
1858.14017344993
1858.14012128619
1858.14009433393
1858.14008101065
1858.14007480445
1858.14007201695
1858.14007078494
1858.14007023588
1858.14006998242
1858.14006985841
1858.14006979333
1858.14006975665
1858.14006973455
1858.14006972036
1858.14006971064
1858.14006970357
1858.14006969815
1858.14006969383
1858.14006969029
1858.14006968737
1858.14006968497
1858.14006968303
1858.14006968152
1858.14006968041
1858.1400696797
1858.14006967937
1858.14006967942
1858.14006967986
1858.14006968071
1858.14006968198
1858.14006968372
1858.14006968598
1858.14006968887
1858.1400696926
1858.1400696975
1858.14006970419
1858.14006971379
1858.14006972827
1858.1400697512
1858.14006978911
1858.14006985466
1858.14006997442
1858.14007020883
1858.14007070356
1858.14007181742
1858.14007442127
1858.14008053803
1858.14009454368
1858.14012483009
1858.1401870961
1858.1400599118
1858.14004136332
1858.14003190083
1858.14002728612
1858.14002515805
1858.14002420685
1858.14002378567
1858.14002359567
1858.14002350527
1858.14002345842
1858.14002343147
1858.1400234143
1858.14002340234
1858.14002339342
1858.1400233864
1858.14002338068
1858.1400233759
1858.14002337186
1858.14002336844
1858.14002336556
1858.14002336317
1858.14002336123
1858.14002335971
1858.1400233586
1858.14002335788
1858.14002335756
1858.14002335762
1858.14002335807
1858.14002335893
1858.14002336021
1858.14002336193
1858.14002336415
1858.14002336691
1858.14002337029
1858.14002337444
1858.14002337959
1858.14002338612
1858.14002339471
1858.14002340653
1858.14002342372
1858.1400234504
1858.14002349527
1858.14002357823
1858.1400237477
1858.14002412426
1858.14002500451
1858.14002709035
1858.14003193737
1858.14004260951
1858.14006492789
1858.14002048166
1858.14001403689
1858.14001082969
1858.14000930717
1858.14000861575
1858.14000830554
1858.14000816439
1858.1400080969
1858.14000806146
1858.14000804034
1858.14000802603
1858.14000801531
1858.14000800674
1858.14000799959
1858.14000799351
1858.14000798828
1858.14000798375
1858.14000797985
1858.1400079765
1858.14000797366
1858.1400079713
1858.14000796938
1858.14000796788
1858.14000796678
1858.14000796607
1858.14000796575
1858.14000796581
1858.14000796627
1858.14000796712
1858.14000796839
1858.1400079701
1858.14000797228
1858.14000797497
1858.14000797821
1858.14000798208
1858.14000798667
1858.14000799214
1858.14000799871
1858.14000800678
1858.14000801704
1858.1400080308
1858.14000805078
1858.14000808321
1858.14000814319
1858.1400082685
1858.14000855348
1858.14000922859
1858.14001082968
1858.14001446569
1858.14002228349
1858.14000705779
1858.14000487573
1858.14000385767
1858.14000340989
1858.14000321398
1858.14000312284
1858.14000307633
1858.14000304969
1858.14000303232
1858.14000301954
1858.14000300931
1858.14000300069
1858.14000299323
1858.1400029867
1858.14000298096
1858.14000297593
1858.14000297153
1858.14000296772
1858.14000296443
1858.14000296165
1858.14000295932
1858.14000295743
1858.14000295596
1858.14000295488
1858.14000295419
1858.14000295387
1858.14000295394
1858.14000295439
1858.14000295524
1858.14000295649
1858.14000295818
1858.14000296032
1858.14000296296
1858.14000296612
1858.14000296986
1858.14000297423
1858.14000297931
1858.14000298519
1858.14000299202
1858.14000300002
1858.1400030096
1858.14000302154
1858.14000303755
1858.14000306157
1858.14000310321
1858.14000318706
1858.140003379
1858.14000385436
1858.14000502101
1858.14000769091
1858.14000257522
1858.14000186312
1858.14000159522
1858.14000151307
1858.14000148429
1858.14000146622
1858.14000145081
1858.14000143733
1858.14000142565
1858.14000141545
1858.14000140646
1858.14000139849
1858.14000139141
1858.14000138511
1858.14000137953
1858.14000137462
1858.14000137032
1858.14000136658
1858.14000136336
1858.14000136063
1858.14000135836
1858.14000135651
1858.14000135507
1858.14000135401
1858.14000135334
1858.14000135304
1858.1400013531
1858.14000135355
1858.14000135438
1858.14000135562
1858.14000135727
1858.14000135938
1858.14000136197
1858.14000136507
1858.14000136873
1858.14000137299
1858.1400013779
1858.14000138353
1858.14000138995
1858.14000139724
1858.14000140554
1858.14000141502
1858.14000142595
1858.1400014386
1858.1400014532
1858.14000147082
1858.14000150101
1858.14000159429
1858.14000191247
1858.14000279305
1858.14000110747
1858.14000089223
1858.14000087599
1858.14000091527
1858.14000094123
1858.1400009466
1858.14000094087
1858.14000093132
1858.14000092122
1858.1400009117
1858.14000090305
1858.14000089527
1858.14000088832
1858.14000088214
1858.14000087667
1858.14000087185
1858.14000086764
1858.14000086398
1858.14000086084
1858.14000085818
1858.14000085596
1858.14000085416
1858.14000085275
1858.14000085173
1858.14000085108
1858.14000085079
1858.14000085086
1858.1400008513
1858.14000085211
1858.14000085332
1858.14000085494
1858.140000857
1858.14000085954
1858.14000086258
1858.14000086616
1858.14000087034
1858.14000087517
1858.14000088069
1858.14000088696
1858.14000089405
1858.14000090201
1858.14000091086
1858.14000092041
1858.14000092979
1858.14000093619
1858.14000093287
1858.14000091052
1858.14000087722
1858.14000090995
1858.14000118098
1858.14000063778
1858.14000058733
1858.14000065347
1858.14000073161
1858.14000077446
1858.14000078666
1858.14000078346
1858.14000077476
1858.14000076491
1858.14000075546
1858.14000074684
1858.14000073911
1858.14000073223
1858.14000072614
1858.14000072076
1858.14000071604
1858.14000071192
1858.14000070836
1858.1400007053
1858.14000070271
1858.14000070056
1858.14000069881
1858.14000069745
1858.14000069646
1858.14000069583
1858.14000069555
1858.14000069563
1858.14000069606
1858.14000069685
1858.14000069803
1858.14000069962
1858.14000070163
1858.1400007041
1858.14000070707
1858.14000071058
1858.14000071469
1858.14000071943
1858.14000072488
1858.14000073109
1858.14000073814
1858.14000074607
1858.14000075488
1858.14000076426
1858.14000077301
1858.14000077739
1858.14000076816
1858.14000072976
1858.140000656
1858.14000059496
1858.14000066225
1858.14000049311
1858.14000049634
1858.14000058836
1858.14000067781
1858.14000072493
1858.14000073838
1858.14000073534
1858.14000072645
1858.1400007164
1858.14000070682
1858.14000069815
1858.14000069043
1858.14000068361
1858.1400006776
1858.14000067233
1858.14000066771
1858.14000066371
1858.14000066024
1858.14000065728
1858.14000065477
1858.14000065269
1858.14000065101
1858.1400006497
1858.14000064874
1858.14000064814
1858.14000064787
1858.14000064795
1858.14000064837
1858.14000064915
1858.14000065029
1858.14000065183
1858.14000065378
1858.14000065619
1858.14000065908
1858.14000066251
1858.14000066653
1858.14000067119
1858.14000067657
1858.14000068275
1858.14000068979
1858.14000069779
1858.14000070673
1858.14000071634
1858.14000072535
1858.14000072976
1858.14000071958
1858.14000067722
1858.14000059163
1858.14000050092
1858.14000050133
1858.14000045308
1858.14000047348
1858.14000057271
1858.14000066426
1858.14000071133
1858.14000072412
1858.14000072038
1858.14000071096
1858.14000070056
1858.14000069078
1858.14000068204
1858.14000067433
1858.14000066758
1858.14000066167
1858.14000065651
1858.14000065202
1858.14000064813
1858.14000064478
1858.14000064192
1858.14000063951
1858.14000063751
1858.14000063589
1858.14000063463
1858.14000063372
1858.14000063314
1858.14000063289
1858.14000063297
1858.14000063338
1858.14000063413
1858.14000063524
1858.14000063673
1858.14000063862
1858.14000064095
1858.14000064376
1858.14000064709
1858.14000065102
1858.14000065559
1858.14000066089
1858.14000066701
1858.14000067406
1858.14000068214
1858.14000069129
1858.14000070126
1858.14000071082
1858.14000071599
1858.14000070657
1858.14000066434
1858.14000057646
1858.14000047727
1858.14000045611
1858.14000044695
1858.14000047268
1858.14000057283
1858.1400006632
1858.14000070861
1858.14000071998
1858.1400007152
1858.1400007051
1858.1400006943
1858.14000068433
1858.14000067552
1858.14000066784
1858.14000066118
1858.14000065538
1858.14000065036
1858.14000064601
1858.14000064226
1858.14000063903
1858.14000063629
1858.14000063397
1858.14000063206
1858.14000063052
1858.14000062932
1858.14000062845
1858.1400006279
1858.14000062767
1858.14000062775
1858.14000062815
1858.14000062887
1858.14000062994
1858.14000063137
1858.14000063319
1858.14000063544
1858.14000063815
1858.14000064138
1858.14000064519