/*--------------------------------*- C++ -*----------------------------------*\
  =========                 |
  \\      /  F ield         | OpenFOAM: The Open Source CFD Toolbox
   \\    /   O peration     | Website:  https://openfoam.org
    \\  /    A nd           | Version:  10
     \\/     M anipulation  |
\*---------------------------------------------------------------------------*/
FoamFile
{
    format      ascii;
    class       volScalarField;
    location    "9.4";
    object      k;
}
// * * * * * * * * * * * * * * * * * * * * * * * * * * * * * * * * * * * * * //

dimensions      [0 2 -2 0 0 0 0];

internalField   nonuniform List<scalar> 
2500
(
5.46541208415933e-10
1.07793278923066e-08
4.63197299677136e-08
8.11621446041258e-08
1.12439932790392e-07
1.39080983622171e-07
1.60661389201719e-07
1.77297582403084e-07
1.89511208833321e-07
1.98057982266163e-07
2.03764254668868e-07
2.07403117609668e-07
2.09622053048259e-07
2.10917482384923e-07
2.11642431693773e-07
2.12031799764e-07
2.12232751132398e-07
2.12332517686388e-07
2.12380211321807e-07
2.124021806943e-07
2.12411932044818e-07
2.12416097407729e-07
2.12417800707634e-07
2.12418451744755e-07
2.12418649244196e-07
2.12418600133049e-07
2.12418280219742e-07
2.12417425143394e-07
2.12415337155077e-07
2.12410430267169e-07
2.12399276816032e-07
2.12374754833804e-07
2.12322636037969e-07
2.12215632486583e-07
2.12003630903854e-07
2.1159874133265e-07
2.10854227818464e-07
2.09537779979619e-07
2.0730229289214e-07
2.03661333863945e-07
1.97980952316471e-07
1.89502504997948e-07
1.77409894064874e-07
1.60946456919538e-07
1.39571200813269e-07
1.13124676158228e-07
8.19610869926876e-08
4.7047500318253e-08
1.10616728643513e-08
5.68716977170547e-10
1.35225973876995e-08
3.10847820202757e-07
1.36326598283261e-06
2.38985137650515e-06
3.31203160130618e-06
4.09860903841325e-06
4.73694011701819e-06
5.23011984366245e-06
5.59312860581623e-06
5.84789323282079e-06
6.01853421060764e-06
6.12772997991407e-06
6.19456368294366e-06
6.23373456518394e-06
6.25574514584885e-06
6.26761710662018e-06
6.27377094146579e-06
6.27683982041403e-06
6.27831362196872e-06
6.27899566822826e-06
6.2792998658323e-06
6.2794304696361e-06
6.27948417563959e-06
6.27950483831826e-06
6.27951116866377e-06
6.27950966405413e-06
6.27949958184999e-06
6.2794726636936e-06
6.27940718612289e-06
6.27925397318631e-06
6.27890721986596e-06
6.27814809327187e-06
6.27654139713988e-06
6.27325641698487e-06
6.26677464547985e-06
6.25444519132648e-06
6.23186265841514e-06
6.19208436736506e-06
6.12478399642263e-06
6.01555536557995e-06
5.84570782580365e-06
5.59297674458795e-06
5.23352810288959e-06
4.74539308108593e-06
4.11301662685686e-06
3.33204857224248e-06
2.41311320344395e-06
1.38438118245197e-06
3.18845192841164e-07
1.40523529645397e-08
4.79084743806059e-08
1.39454584038491e-06
6.93035602695405e-06
1.21361200824093e-05
1.67884639442014e-05
2.07456183620572e-05
2.39512871197293e-05
2.64259533998799e-05
2.82475137567333e-05
2.95269283693772e-05
3.03851099876177e-05
3.09353484630699e-05
3.12729221006277e-05
3.14713048009499e-05
3.15831065162076e-05
3.16435991201685e-05
3.16750591258833e-05
3.16908020694365e-05
3.16983894992921e-05
3.17019138757773e-05
3.17034919075969e-05
3.17041722597207e-05
3.17044533482213e-05
3.17045621182871e-05
3.17045957830317e-05
3.17045882670118e-05
3.17045359037329e-05
3.17043960433903e-05
3.1704056653202e-05
3.17032647501105e-05
3.17014775773409e-05
3.16975759018184e-05
3.16893406028302e-05
3.16725485199045e-05
3.16395032111196e-05
3.15768089186256e-05
3.1462268333755e-05
3.12609950915326e-05
3.09212261298044e-05
3.03708842378315e-05
2.95165502081372e-05
2.82468847924269e-05
2.64423188985608e-05
2.39916847534819e-05
2.08143561683746e-05
1.68838638980266e-05
1.2246805996382e-05
7.03040169708353e-06
1.42745856409348e-06
4.95165735973584e-08
8.46928202111387e-08
2.48252397277982e-06
1.23931143449012e-05
2.16454349459495e-05
2.98750301604794e-05
3.68487031370151e-05
4.24814862034023e-05
4.68203588395586e-05
5.00093892610243e-05
5.2247279737016e-05
5.3747763245632e-05
5.47098093037733e-05
5.53001964665549e-05
5.56473296433956e-05
5.58430981823482e-05
5.59491117737135e-05
5.60042986430013e-05
5.60319443702462e-05
5.60452841267503e-05
5.60514884729107e-05
5.60542704261996e-05
5.60554717894077e-05
5.60559691191014e-05
5.60561621310488e-05
5.6056222379242e-05
5.60562100164778e-05
5.60561192672045e-05
5.60558759750912e-05
5.60552849819665e-05
5.60539051318342e-05
5.60507893622384e-05
5.60439837567967e-05
5.60296126973889e-05
5.60002981597209e-05
5.59425906033817e-05
5.58330757214525e-05
5.56329464779252e-05
5.52811939312775e-05
5.46872505551289e-05
5.37248908611311e-05
5.22302356325919e-05
5.00073563882646e-05
4.68446147152148e-05
4.25429775061519e-05
3.6954075196607e-05
3.0021443054561e-05
2.18146252428093e-05
1.25441143770408e-05
2.53091912164127e-06
8.7010382005836e-08
1.21002501653741e-07
3.54868858707322e-06
1.76914936395161e-05
3.08225906632627e-05
4.24550328538587e-05
5.22801651809211e-05
6.01960334877399e-05
6.62821518524276e-05
7.07496771202828e-05
7.38823188668106e-05
7.59819637613762e-05
7.73281209218703e-05
7.81544130613995e-05
7.86404585014047e-05
7.89147277759712e-05
7.90633578712335e-05
7.91407937075952e-05
7.9179621423102e-05
7.91983763802288e-05
7.92071095177335e-05
7.92110305001803e-05
7.92127263382667e-05
7.92134297118846e-05
7.92137034769258e-05
7.92137896221729e-05
7.92137734582121e-05
7.92136477856203e-05
7.92133094843728e-05
7.92124867724643e-05
7.9210564525714e-05
7.92062212078311e-05
7.91967286138394e-05
7.91766723935704e-05
7.91357404297835e-05
7.90551270245135e-05
7.89020817921435e-05
7.86223057534067e-05
7.81304025130491e-05
7.72995346125241e-05
7.59527756187809e-05
7.38600800440932e-05
7.07456845797853e-05
6.63102721065474e-05
6.026969610462e-05
5.24074311473492e-05
4.26321376172033e-05
3.10266216443153e-05
1.78721086156658e-05
3.60633082952277e-06
1.23782250358245e-07
1.56032128775665e-07
4.5764687357706e-06
2.27673839426236e-05
3.95740287250823e-05
5.44087562359021e-05
6.69023751337966e-05
7.69457615658988e-05
8.46550933976842e-05
9.0307946716354e-05
9.42691678665396e-05
9.69234032571041e-05
9.86251306484818e-05
9.96699161752063e-05
0.000100284735731958
0.000100631862648857
0.000100820102411363
0.000100918251764834
0.000100967509367777
0.000100991325988907
0.000101002428476536
0.000101007419615495
0.000101009581568865
0.000101010480001334
0.000101010830706997
0.000101010941906324
0.000101010922890274
0.000101010765589603
0.000101010340390266
0.000101009305282818
0.000101006885263801
0.000101001414109481
0.000100989449999487
0.000100964158842322
0.000100912518698532
0.000100810772993844
0.00010061753546667
0.000100264167660437
9.96426844684532e-05
9.85926242387931e-05
9.68899947722155e-05
9.42431876235648e-05
9.03018571702748e-05
8.46841719237555e-05
7.70247582123675e-05
6.70400428129623e-05
5.46007143854243e-05
3.97948193562655e-05
2.29621724865871e-05
4.6391282246639e-06
1.59106084941102e-07
1.89331346857262e-07
5.55368370953157e-06
2.75714279991435e-05
4.78221342110384e-05
6.56387319664998e-05
8.06050079567239e-05
9.26125798837606e-05
0.000101816663534273
0.000108559244936753
0.000113281548786455
0.000116445064510906
0.000118473388213535
0.00011971898907627
0.000120452275938281
0.00012086651052439
0.00012109128676158
0.000121208574349052
0.000121267486777444
0.00012129599885823
0.000121309304577662
0.000121315293643496
0.0001213178917469
0.000121318973526137
0.000121319397051587
0.000121319532328538
0.000121319511314673
0.000121319325530118
0.000121318821308142
0.000121317592708012
0.00012131471882072
0.00012130821841306
0.000121293996739881
0.000121263919421334
0.000121202480577912
0.000121081382186135
0.000120851311495388
0.000120430461528428
0.000119690092114378
0.000118438826419022
0.000116409353876126
0.000113253302989464
0.000108551337027736
0.000101844838270178
9.26919758049452e-05
8.07445011978269e-05
6.58336196970734e-05
4.80461797010474e-05
2.77691327778507e-05
5.61833306066652e-06
1.92576097003349e-07
2.20569480222336e-07
6.47090559060025e-06
3.20636654088555e-05
5.55057614290956e-05
7.60700458479468e-05
9.33050664049823e-05
0.000107109235685413
0.000117677632053193
0.000125413553766402
0.000130829187686822
0.000134456609204508
0.000136782536605543
0.000138211255280018
0.000139052676573723
0.000139528241545699
0.000139786457538897
0.00013992129045189
0.000139989070758572
0.000140021904728927
0.000140037243310498
0.000140044155768092
0.000140047158874736
0.0001400484117145
0.000140048903683392
0.000140049061950553
0.000140049039680591
0.000140048828389125
0.000140048252758299
0.000140046849063636
0.000140043564233354
0.000140036131322523
0.000140019862759469
0.000139985442491427
0.000139915105555674
0.000139776420963685
0.00013951285869466
0.000139030616331694
0.000138182039881381
0.000136747566056043
0.000134420358944683
0.000130800182584534
0.00012540450070374
0.000117704015166919
0.000107185858397042
9.34404850109349e-05
7.62594615974723e-05
5.57235001828158e-05
3.22563427209085e-05
6.53537244495115e-06
2.2389224105149e-07
2.49502083474431e-07
7.32103566108054e-06
3.62141578327298e-05
6.25808703750417e-05
8.56507528142596e-05
0.000104947014614454
0.000120379190219056
0.00013218173797566
0.00014081533617331
0.000146857277174023
0.000150903791865993
0.000153498699350419
0.000155093052074957
0.000156032384859871
0.000156563552294673
0.0001568521295167
0.000157002919098787
0.000157078779494226
0.000157115559773166
0.000157132759081286
0.000157140519186313
0.000157143895419591
0.000157145306625793
0.000157145862444405
0.00015714604250291
0.000157146019626423
0.00015714578562856
0.000157145145902698
0.000157143584889668
0.000157139930737798
0.000157131659412527
0.000157113549380215
0.000157075219362112
0.000156996866505526
0.000156842329405784
0.000156548560808788
0.000156010922533293
0.000155064670046191
0.000153464761797292
0.000150868614229879
0.000146829035120619
0.000140806154767061
0.000132206307180122
0.000120451440190158
0.000105074840894081
8.58293960335439e-05
6.27861276064914e-05
3.63965960850962e-05
7.38382137808631e-06
2.52834287527315e-07
2.7596313052883e-07
8.09920308009755e-06
4.0003214653543e-05
6.90205461775409e-05
9.43515324999642e-05
0.00011550206989387
0.000132395611177772
0.00014530446287329
0.000154742161315211
0.000161345007032247
0.000165766932696797
0.000168602919317958
0.000170345850031545
0.000171373106768625
0.000171954269273128
0.000172270186364722
0.000172435368794521
0.000172518531116725
0.000172558885233776
0.000172577773769609
0.000172586305642823
0.000172590022848874
0.000172591579491963
0.000172592194389015
0.000172592394947067
0.000172592372032425
0.000172592117947635
0.000172591421106391
0.000172589719815061
0.0001725857363439
0.00017257671723515
0.000172556964018203
0.000172515143212929
0.000172429629131039
0.000172260921898174
0.000171940139489295
0.000171352939834918
0.000170319269624067
0.000168571259798084
0.000165734286019963
0.000161319037003017
0.000154734136765382
0.000145327916307942
0.000132463222135578
0.000115620815449712
9.45167343662744e-05
6.92099884979975e-05
4.01724597349161e-05
8.15936417526988e-06
2.79256664135713e-07
2.99861631397562e-07
8.80269478923908e-06
4.34211599758601e-05
7.48143151108391e-05
0.000102164502395724
0.000124966575702595
0.000143159406632529
0.000157050824587866
0.000167202337790824
0.000174303094846983
0.000179058384829611
0.000182108588100392
0.0001839836604743
0.000185089202271939
0.000185714937594291
0.000186055265969484
0.000186233321191265
0.000186323026607386
0.000186366589990227
0.000186386999161565
0.000186396227819276
0.000186400254010666
0.000186401943104172
0.000186402612197951
0.000186402831875842
0.000186402809385244
0.000186402537682892
0.000186401790341061
0.000186399964969776
0.000186395690271516
0.00018638600982139
0.000186364802844004
0.000186319892116938
0.000186228035774989
0.000186046772567775
0.000185702042957349
0.00018507089201202
0.000183959676600043
0.000182080260307868
0.000179029564471613
0.000174280853414978
0.000167196933020739
0.000157074412606707
0.000143223174800364
0.000125076393321831
0.000102315731364831
7.49869132232683e-05
4.3576088802077e-05
8.85974713214852e-06
3.03085855284902e-07
3.21176914907971e-07
9.43082962893282e-06
4.64676736705111e-05
7.9966826820665e-05
0.00010910128262074
0.000133359563012552
0.000152696411505688
0.000167452301575112
0.000178231662954108
0.00018577042258468
0.000190819100537918
0.000194057969622088
0.000196049534125656
0.00019722416985901
0.000197889297806368
0.000198251233235614
0.000198440701877047
0.000198536219626276
0.0001985826399563
0.000198604406167444
0.000198614258484682
0.000198618562265531
0.000198620370945408
0.000198621089322733
0.000198621326664445
0.000198621304967478
0.000198621017952527
0.000198620226333233
0.000198618292144005
0.000198613762143083
0.000198603501960074
0.000198581020269274
0.000198533398993999
0.000198435976369237
0.000198243688269277
0.0001978779229881
0.000197208151454318
0.000196028778248171
0.000194033840273087
0.000190795227659429
0.000185753271008438
0.000178230421758266
0.000167477649805784
0.000152757914392473
0.000133461849733097
0.000109239650082429
8.01233356828767e-05
4.66085963014562e-05
9.48466048087318e-06
3.243158685048e-07
3.39951515144331e-07
9.98475914553949e-06
4.91507732575995e-05
8.44960179044552e-05
0.00011519045513932
0.000140719657069713
0.000161053889088498
0.00017656305145249
0.000187889451259022
0.000195809941121878
0.000201114457547938
0.00020451797853611
0.000206611311098984
0.000207846380277644
0.000208546010678583
0.00020892690012901
0.000209126398010154
0.000209227032975918
0.000209275974002704
0.00020929894050828
0.000209309346087603
0.000209313897045953
0.000209315812741968
0.000209316575534416
0.000209316829038601
0.000209316808415803
0.000209316508220156
0.000209315678126498
0.000209313649365056
0.000209308897602925
0.000209298133927454
0.000209274544935148
0.000209224568175139
0.000209122306218551
0.000208920428842691
0.000208536359990872
0.000207832973295978
0.00020659426162897
0.00020449873240084
0.000201096468838388
0.000195799103933086
0.000187893904017515
0.000176591988406662
0.000161115212364599
0.000140816671257059
0.00011531824365813
8.46384873474392e-05
4.92790610588804e-05
1.00355430239986e-05
3.43001137194309e-07
3.56281894283696e-07
1.04672042322628e-05
5.14855233641502e-05
8.84308948052971e-05
0.000120474585882712
0.000147101515437725
0.000168296543057365
0.000184455624442643
0.000196254045279209
0.000204504048098373
0.000210029551869049
0.000213575420450247
0.000215756829654043
0.000217044267125397
0.000217773837694312
0.000218171200771076
0.000218379430640646
0.000218484529557598
0.000218535674270995
0.000218559692742834
0.000218570584663035
0.000218575353717451
0.00021857736430984
0.000218578166764288
0.000218578434914687
0.000218578415566347
0.000218578104143043
0.00021857724093698
0.000218575130771663
0.000218570188245049
0.000218558991546442
0.000218534450078543
0.000218482446444119
0.000218376018463361
0.000218165882445343
0.000217766043908993
0.00021703368671077
0.00021574382357442
0.00021356156753352
0.000210018192986288
0.000204500577954946
0.000196265624892184
0.000184490025094242
0.000168360031126987
0.000147196026826949
0.000120594819142783
8.8562224531818e-05
5.16032686655352e-05
1.05153231980678e-05
3.59247282003352e-07
3.7030765850544e-07
1.08821469735111e-05
5.34925704070609e-05
9.18090859188205e-05
0.000125006992535424
0.000152572000798811
0.000174502256847739
0.000191216397461366
0.000203418041142833
0.000211949674849988
0.000217664195526703
0.000221331934029835
0.000223588834776296
0.000224921215942685
0.000225676519235223
0.000226088063745455
0.000226303823972007
0.00022641278011747
0.000226465833196
0.000226490764959973
0.000226502080382083
0.000226507040070379
0.000226509134024141
0.000226509971564149
0.000226510252857314
0.000226510234913142
0.00022650991403418
0.000226509022624426
0.000226506843107936
0.000226501738167322
0.000226490172889748
0.00022646482057719
0.000226411090831307
0.000226301113442124
0.000226083938069497
0.000225670652839167
0.000224913584883865
0.000223580080985416
0.00022132381998346
0.000217660020352516
0.000211954427354767
0.000203438015157768
0.000191258051663738
0.000174570299135201
0.000152666988027632
0.000125123062021134
9.19326374254584e-05
5.36022858003336e-05
1.09281176483275e-05
3.73200462283704e-07
3.82200029299268e-07
1.12344996516674e-05
5.51965994940545e-05
9.46743092020351e-05
0.000128848436345092
0.000157206288190121
0.000179757774764792
0.000196940953597425
0.000209483460430449
0.000218253319501711
0.000224127859631567
0.000227898877560506
0.000230219830482475
0.000231590396491922
0.000232367595581864
0.000232791226983525
0.000233013417056081
0.00023312567333988
0.000233180362827019
0.000233206079742806
0.000233217760358418
0.000233222885061033
0.000233225051536023
0.000233225919814931
0.00023322621278623
0.000233226196316725
0.00023322586757586
0.000233224952415172
0.000233222714472351
0.000233217472786962
0.000233205597253986
0.000233179562284961
0.00023312437873496
0.000233011410454711
0.000232788300599898
0.000232363674446229
0.00023158575822437
0.000230215425101669
0.000227896697964546
0.000224131236673325
0.000218266940417015
0.000209512883358421
0.000196991465302477
0.000179832635775501
0.000157304693563487
0.00012896379507196
9.47935840718212e-05
5.53009642851102e-05
1.12789094904251e-05
3.85036094221784e-07
3.92150299308677e-07
1.15297718864408e-05
5.66248025057589e-05
9.70738879973881e-05
0.000132063899646751
0.000161084088216797
0.000184154520490379
0.000201729612845337
0.000214557081701156
0.000223526244473465
0.000229534784454415
0.000233392383841698
0.000235767101085745
0.000237169764261544
0.000237965397230175
0.000238399221981719
0.000238626844808216
0.000238741895244285
0.000238797973436932
0.000238824358409601
0.000238836350724084
0.000238841616816539
0.000238843845747425
0.000238844740688983
0.000238845043934353
0.000238845028962142
0.000238844693780929
0.000238843758872623
0.000238841472314331
0.000238836116904019
0.000238823983383265
0.000238797380618079
0.000238740987294346
0.000238625528772842
0.000238397475105887
0.000237963396576387
0.000237168096687208
0.000235767044675003
0.000233396202465565
0.000229545910842326
0.000223549170347245
0.000214596769354787
0.000201790332974189
0.000184238217545359
0.000161188634422766
0.000132181828031373
9.71922776430106e-05
5.67264612583233e-05
1.15732266816881e-05
3.9494764782566e-07
4.00358886033675e-07
1.17737536154814e-05
5.78054308237843e-05
9.90564234836766e-05
0.000134719580797263
0.000164286134114788
0.000187784712549615
0.000205683282221003
0.000218746105977381
0.000227880017086046
0.000233999438139449
0.00023792876695504
0.000240348086151585
0.000241777416635421
0.000242588390370596
0.000243030713419266
0.000243262874528393
0.000243380264129403
0.00024343750769281
0.000243464454817933
0.000243476710266952
0.000243482096199162
0.000243484378345303
0.000243485296173203
0.000243485608366666
0.000243485594877918
0.00024348525451487
0.000243484303429319
0.000243481976993296
0.000243476528326333
0.000243464183248312
0.00024343711468195
0.000243379728267341
0.00024326222408177
0.000243030106410628
0.000242588252845972
0.000241778646497853
0.000240352302490762
0.000237938537588732
0.000234018360777198
0.000227912488865558
0.000218796631472069
0.00020575527490613
0.00018787894094239
0.00016439920258673
0.000134843024351448
9.91770304556347e-05
5.79068452583895e-05
1.18168372386924e-05
4.03136100713883e-07
4.07025446667432e-07
1.19722274221258e-05
5.87664881346755e-05
0.000100669704534503
0.000136880204139526
0.000166891042110345
0.000190737894860432
0.000208899749832388
0.000222154285484529
0.0002314225259193
0.000237632459000938
0.000241620417353979
0.000244076246536924
0.000245527441690999
0.00024635101582411
0.000246800332657347
0.000247036236511019
0.000247155559701607
0.000247213769050997
0.00024724118340976
0.000247253658313756
0.000247259144617184
0.000247261471581091
0.000247262408835058
0.000247262728741553
0.000247262716696049
0.000247262372258763
0.000247261408159458
0.000247259049576171
0.000247253525727938
0.000247241010047625
0.000247213565591164
0.000247155377039705
0.000247036218919896
0.000246800812391948
0.000246352661444453
0.000245531459125308
0.000244084602397345
0.000241636008368148
0.000237659101671552
0.000231464613886397
0.000222215994634623
0.000208983789007758
0.000190843996532007
0.000167014608266248
0.000137011677740214
0.000100795230694533
5.88698398746426e-05
1.20154737485984e-05
4.09800471445096e-07
4.12340348048304e-07
1.21307189370929e-05
5.95345983780206e-05
0.00010195890487006
0.000138606704484798
0.000168972611327371
0.000193097953681749
0.000211470498089215
0.000224878593742851
0.000234254553138668
0.000240537163098457
0.000244572267961546
0.000247057504831538
0.000248526343335487
0.000249360105376648
0.000249815089193956
0.000250054032890603
0.000250174930574534
0.000250233928586176
0.000250261725717143
0.00025027438108541
0.000250279950312117
0.000250282314528382
0.00025028326806843
0.000250283594551368
0.000250283583891962
0.000250283236352318
0.000250282262031225
0.000250279878112298
0.000250274294978812
0.00025026164466285
0.000250233903205986
0.000250175079966674
0.000250054611277164
0.000249816595093707
0.000249363441077165
0.000248533016150421
0.000247069830007956
0.000244593488433346
0.000240571357737428
0.000234306190504673
0.000224951636027774
0.000211567089152947
0.000193216922493233
0.000169108228203449
0.000138748253812312
0.00010209159758281
5.96417365712304e-05
1.21745948840805e-05
4.15129685633418e-07
4.16477627955134e-07
1.22542895759472e-05
6.01340654208386e-05
0.000102965089531527
0.000139954311198704
0.00017059759045105
0.000194940649895835
0.000213478066457731
0.000227006468634261
0.000236466935370586
0.000242806650382309
0.000246878865066807
0.000249387294328289
0.000250870077119381
0.000251711909980935
0.000252171394619101
0.000252412759311002
0.000252534914749847
0.000252594544874103
0.000252622649953957
0.000252635451150689
0.000252641087748939
0.000252643482444399
0.000252644449442051
0.000252644781466148
0.000252644772126669
0.000252644422337796
0.00025264344025849
0.000252641037005062
0.000252635408562288
0.000252622655182647
0.000252594685893055
0.000252535374642942
0.000252413895923064
0.000252173864169179
0.000251716838478269
0.000250879264297449
0.000249403401064212
0.000246905491054725
0.000242848170278884
0.000236527957119221
0.000227090838748194
0.000213587486056394
0.000195073164339985
0.000170746409484007
0.000140107518800762
0.000103106733809235
6.02464905806548e-05
1.22991873708913e-05
4.19295877207341e-07
4.19589443112761e-07
1.23473718430464e-05
6.05861241151516e-05
0.000103724027259774
0.000140971025528467
0.000171823902595957
0.00019633165666594
0.000214993953010582
0.000228613617318801
0.000238138301867643
0.000244521498140826
0.000248622032799946
0.000251148205358041
0.000252641685617258
0.000253489728758721
0.000253952688034256
0.000254195928402838
0.000254319062077201
0.000254379185936845
0.000254407532707951
0.000254420448997801
0.000254426139131498
0.000254428558259835
0.000254429536178519
0.000254429872807637
0.000254429864719934
0.000254429513435745
0.00025442852578309
0.00025442610851008
0.000254420447111544
0.000254407618524833
0.000254379482337165
0.000254319812123168
0.000254197587476882
0.000253956061653737
0.000253496156460931
0.000252653249544709
0.000251167906297259
0.000248653832290026
0.000244570090666025
0.000238208485103147
0.000228709201748714
0.000215116299127406
0.000196478129660012
0.000171986718795289
0.000141137047220826
0.000103875969962108
6.07049978409781e-05
1.23936080848956e-05
4.22449095042799e-07
4.21801896322385e-07
1.24136444744197e-05
6.09083702260808e-05
0.000104265287138897
0.000141696462263784
0.000172699294145651
0.000197325064521142
0.000216077014355419
0.000229762341010357
0.000239333347011373
0.000245747998234026
0.000249869087362362
0.000252408185000537
0.000253909489305152
0.000254762094695974
0.000255227618814163
0.000255472250941196
0.000255596114564977
0.000255656609118917
0.000255685138601291
0.000255698142590026
0.000255703873908146
0.000255706312061134
0.000255707298625593
0.000255707639015872
0.00025570763211527
0.00025570728001107
0.000255706288746
0.0002557038622189
0.000255698178921576
0.000255685300013308
0.000255657051261887
0.000255597136952441
0.000255474401083659
0.000255231843937688
0.000254769938395718
0.00025392330624634
0.000252431308798944
0.000249905842399827
0.00024580341466433
0.000239412448992072
0.000229868963940684
0.000216212258650121
0.000197485699594023
0.000172876602474152
0.000141876079064158
0.00010442847871076
6.103453984424e-05
1.24614632928642e-05
4.24713293539434e-07
4.23212066820724e-07
1.24559426915406e-05
6.11143482657239e-05
0.000104611585288321
0.000142161011316955
0.000173260355705191
0.000197962296714605
0.000216772303160507
0.00023050031643169
0.000240101572441917
0.000246536872455217
0.000250671534809101
0.000253219223648419
0.000254725766245005
0.000255581450257007
0.000256048719896213
0.000256294307853573
0.000256418677703848
0.000256479432058498
0.000256508091084354
0.000256521158072974
0.000256526919437438
0.000256529371736722
0.000256530364893415
0.000256530708282662
0.000256530702512492
0.000256530350206701
0.000256529357125096
0.000256526925705956
0.00025652123061663
0.000256508324090352
0.000256480012242354
0.000256419958195615
0.000256296923899277
0.000256053754172854
0.000255590642407382
0.000254741734663967
0.000253245627503689
0.000250713059491598
0.000246598892695873
0.000240189362788199
0.000230617779683314
0.000216920338038281
0.000198137140561309
0.000173452406267619
0.000142354682958235
0.000104786625275635
6.12483758376721e-05
1.25055203245628e-05
4.26183427782896e-07
4.23886042266155e-07
1.24761981015215e-05
6.12132733316302e-05
0.000104778343247927
0.000142385269193461
0.000173531853755739
0.000198271366099241
0.000217110270261656
0.000230859758575639
0.000240476422237927
0.000246922388921068
0.000251064175245997
0.000253616451442611
0.000255125843843413
0.000255983236455432
0.000256451495396498
0.000256697637112423
0.000256822307049793
0.000256883219177645
0.000256911958939434
0.000256925066333785
0.000256930847612431
0.000256933309658317
0.000256934307577772
0.000256934653297712
0.000256934648616215
0.000256934296673704
0.000256933303425248
0.000256930871158423
0.000256925173701767
0.000256912260779976
0.00025688393208621
0.000256823835781266
0.000256700701518143
0.000256457309053853
0.00025599372904535
0.000255143890514758
0.000253646030326237
0.000251110329050184
0.000246990840111839
0.000240572707385167
0.000230987872379293
0.000217270945774987
0.000198460350459272
0.000173738696139447
0.000142593177033645
0.000104965517555457
6.13554597720375e-05
1.25276464726743e-05
4.26923460533259e-07
4.23857698856644e-07
1.24754007681587e-05
6.1209856921672e-05
0.000104773417068546
0.000142379696504573
0.0001735263356314
0.000198266438027887
0.000217106293758498
0.000230856923576568
0.000240474766161908
0.000246921830976094
0.000251064559213526
0.000253617587612078
0.000255127543790993
0.000255985334932698
0.000256453860835187
0.000256700172751829
0.000256824946434495
0.000256885919339128
0.000256914693542926
0.000256927819975806
0.000256933611624406
0.000256936079294476
0.000256937080274504
0.000256937427710019
0.000256937424087958
0.000256937073056888
0.000256936081240988
0.000256933652059674
0.000256927961414305
0.000256915062758251
0.000256886762184906
0.000256826718215038
0.000256703676171698
0.000256460437702438
0.000255997101200031
0.000255147626516549
0.000253650278340445
0.000251115252376132
0.000246996592403662
0.000240579396255868
0.000230995515844084
0.000217279429469726
0.000198469394494217
0.000173747837405214
0.000142601766157603
0.000104972722313289
6.13602609542188e-05
1.25287703160427e-05
4.26965110836751e-07
4.23128252902967e-07
1.24535853740429e-05
6.11042403984291e-05
0.000104596983720987
0.000142144462499669
0.000173243940737288
0.000197947615825882
0.000216760445438777
0.000230491861300489
0.000240096642456896
0.000246535233607978
0.000250672723714402
0.000253222674402144
0.000254730913876133
0.000255587798420578
0.000256055872801335
0.000256301974085325
0.000256426656946763
0.000256487594710608
0.000256516357678074
0.00025652948211274
0.000256535274753673
0.000256537744003891
0.000256538746376558
0.000256539094927769
0.000256539092346781
0.000256538742793066
0.000256537754048706
0.000256535331971761
0.000256529657490971
0.000256516794100281
0.000256488567235299
0.000256428671275924
0.00025630591541255
0.000256063210385889
0.000255600832968761
0.000254753021639944
0.000253258455867792
0.000250727918290508
0.0002466162397727
0.000240209514755122
0.000230640780965816
0.000216945833347816
0.000198164277828838
0.000173479787625085
0.000142380361051288
0.000104808119374184
6.12626674944227e-05
1.25088595944917e-05
4.26307049701395e-07
4.21666467358643e-07
1.24098365863481e-05
6.08920097982878e-05
0.000104241553969889
0.000141669453849141
0.000172672405257051
0.000197300943086542
0.000216057491362452
0.000229748414482006
0.000239325255685559
0.000245745380185643
0.000249871188707908
0.000252414071757487
0.000253918222090404
0.00025477284450485
0.000255239722513101
0.000255485219161526
0.000255609610349437
0.00025567041418315
0.000255699118975252
0.000255712219838968
0.000255718003870574
0.00025572047056296
0.000255721472621564
0.00025572182167817
0.000255721820132707
0.000255721472668853
0.000255720488749223
0.000255718078050469
0.000255712429640907
0.000255699623689432
0.000255671518553993
0.000255611871187233
0.000255489605067198
0.000255247831137513
0.000254787161777773
0.000253942372501003
0.000252452960841233
0.000249930892112649
0.000245832614346211
0.000239446305247181
0.000229907518571296
0.000216254878980086
0.000197530924797526
0.000172922075703705
0.000141918559780135
0.000104463889702379
6.10579833827644e-05
1.24669224366843e-05
4.24915108293743e-07
4.19409143729858e-07
1.23423043880679e-05
6.05642744325057e-05