/*--------------------------------*- C++ -*----------------------------------*\
  =========                 |
  \\      /  F ield         | OpenFOAM: The Open Source CFD Toolbox
   \\    /   O peration     | Website:  https://openfoam.org
    \\  /    A nd           | Version:  10
     \\/     M anipulation  |
\*---------------------------------------------------------------------------*/
FoamFile
{
    format      ascii;
    class       volScalarField;
    location    "9.4";
    object      nut;
}
// * * * * * * * * * * * * * * * * * * * * * * * * * * * * * * * * * * * * * //

dimensions      [0 2 -1 0 0 0 0];

internalField   nonuniform List<scalar> 
2500
(
4.27642080563128e-15
8.43376086846593e-14
3.62412180121607e-13
6.35033299551061e-13
8.79767570024939e-13
1.08822323380345e-12
1.25708188399015e-12
1.38725397918064e-12
1.48282103707736e-12
1.54969623716123e-12
1.59434554092419e-12
1.62281814000789e-12
1.64018036371639e-12
1.6503165337406e-12
1.65598894071315e-12
1.65903557287875e-12
1.66060792642855e-12
1.66138855620278e-12
1.66176174025066e-12
1.66193364280057e-12
1.66200994474947e-12
1.66204253866168e-12
1.66205586773515e-12
1.66206096271198e-12
1.66206250900211e-12
1.66206212542257e-12
1.66205962241194e-12
1.66205293173776e-12
1.66203659378332e-12
1.66199819893721e-12
1.6619109273394e-12
1.66171905244033e-12
1.66131124552647e-12
1.66047399061407e-12
1.65881517386704e-12
1.65564709483057e-12
1.64982160675356e-12
1.63952097632468e-12
1.62202923647978e-12
1.59354023084282e-12
1.54909350688452e-12
1.48275291780187e-12
1.38813274801191e-12
1.25931238652889e-12
1.09205891152451e-12
8.85125273032377e-13
6.41284449150899e-13
3.6810634202291e-13
8.65466716482034e-14
4.44993632190254e-15
4.24236380369783e-13
2.19431014464005e-11
9.62415869947811e-11
1.68725109107875e-10
2.33841827215126e-10
2.89385484551485e-10
3.34461533710431e-10
3.69287799026233e-10
3.94921891632772e-10
4.12912162675242e-10
4.24961940219978e-10
4.32672722316937e-10
4.37392104493777e-10
4.40158092371222e-10
4.41712325081903e-10
4.4255063583924e-10
4.4298517271862e-10
4.43201873069773e-10
4.43305941514057e-10
4.4335410242382e-10
4.43375582710252e-10
4.43384805211461e-10
4.43388597782792e-10
4.43390057027358e-10
4.43390504224705e-10
4.4339039813935e-10
4.4338968629679e-10
4.43387785598262e-10
4.43383162119809e-10
4.43372343458775e-10
4.43347858524531e-10
4.43294255048522e-10
4.43180802927098e-10
4.42948843265984e-10
4.42491149773023e-10
4.41620533867458e-10
4.40025912832414e-10
4.3721703159453e-10
4.32464691821418e-10
4.24751582777745e-10
4.12757824453244e-10
3.94911139397957e-10
3.69528429272146e-10
3.35058373367274e-10
2.90402766801945e-10
2.35255130773775e-10
1.7036741190277e-10
9.77322055841801e-11
2.25076296866283e-11
4.40856663536155e-13
1.50649680841712e-12
3.94704538216866e-10
1.36232581770268e-07
2.38585522447012e-07
3.30067184920031e-07
4.07883061438514e-07
4.70922652377517e-07
5.19587322930947e-07
5.55408460190253e-07
5.80568065669776e-07
5.97443990254516e-07
6.08264181159868e-07
6.14902348906133e-07
6.18803381560063e-07
6.21001852758337e-07
6.22191372335652e-07
6.22809994505834e-07
6.23119558643934e-07
6.2326875502024e-07
6.23338056975343e-07
6.23369086877229e-07
6.23382465262159e-07
6.23387992719119e-07
6.23390131743438e-07
6.2339079391719e-07
6.23390646300781e-07
6.23389616777639e-07
6.23386866740883e-07
6.2338019324799e-07
6.23364621762892e-07
6.23329479762801e-07
6.23252759039126e-07
6.2309082342912e-07
6.22760629309733e-07
6.22110833722623e-07
6.20878019610904e-07
6.18625689293645e-07
6.14667812601196e-07
6.07986467922377e-07
5.9716423182669e-07
5.80363951718349e-07
5.55396038262856e-07
5.19909063022807e-07
4.71716933595276e-07
4.09234558618278e-07
3.31942813486928e-07
2.4076147021469e-07
1.38199091190642e-07
4.04019286451419e-10
1.55706486533136e-12
2.66914183310932e-12
7.04234375290435e-10
2.44173148410565e-07
4.2650755551247e-07
5.8870558456774e-07
7.26157799998734e-07
8.37183052000263e-07
9.22704859789699e-07
9.85562232504423e-07
1.02967174452111e-06
1.05924641037258e-06
1.07820821246087e-06
1.08984454282441e-06
1.09668635417262e-06
1.10054481596541e-06
1.10263425487337e-06
1.10372193484616e-06
1.10426680266593e-06
1.10452971407495e-06
1.10465199438925e-06
1.10470682342494e-06
1.10473050104471e-06
1.10474030307635e-06
1.10474410735936e-06
1.10474529502097e-06
1.1047450515897e-06
1.10474326322635e-06
1.10473846846436e-06
1.10472682099569e-06
1.10469962616258e-06
1.1046382185105e-06
1.10450408847898e-06
1.10422085148172e-06
1.10364309308987e-06
1.10250573234508e-06
1.10034728487609e-06
1.09640287393905e-06
1.08947001150003e-06
1.07776357835702e-06
1.0587955760422e-06
1.02933575701219e-06
9.85522077547563e-07
9.23182806212098e-07
8.38394833492847e-07
7.2823432280096e-07
5.9159071394131e-07
4.2984112531853e-07
2.47147819148906e-07
7.17960837535875e-10
2.74217640532794e-12
3.82095231756814e-12
1.00867179779293e-09
3.49252547884402e-07
6.08534331504036e-07
8.38247707132883e-07
1.03227968661528e-06
1.18860874396058e-06
1.30880236185842e-06
1.3970300663538e-06
1.45889498051202e-06
1.50035933436206e-06
1.52694333252915e-06
1.54326084628522e-06
1.55285912887132e-06
1.55827527764949e-06
1.56121034044597e-06
1.5627394909231e-06
1.56350623079693e-06
1.56387658790388e-06
1.56404904207742e-06
1.56412647004629e-06
1.56415995799964e-06
1.56417384776298e-06
1.56417925402499e-06
1.56418095534685e-06
1.5641806363637e-06
1.56417815491113e-06
1.56417147474257e-06
1.56415522899243e-06
1.56411727071088e-06
1.56403150336808e-06
1.56384405254045e-06
1.56344799939271e-06
1.562639706426e-06
1.56104780729492e-06
1.55802555628383e-06
1.55250066036333e-06
1.54278669468645e-06
1.52637880894746e-06
1.49978290677108e-06
1.45845575823408e-06
1.39695113086853e-06
1.30935753687353e-06
1.19006320696547e-06
1.03479253519922e-06
8.41744391237751e-07
6.12562109595108e-07
3.5281740869198e-07
1.0250518191894e-09
3.90871307790506e-12
4.9349635151116e-12
1.30287394500147e-09
4.50164797528166e-07
7.82534297059471e-07
1.07593112283548e-06
1.32303449309804e-06
1.52167799640652e-06
1.67415692742786e-06
1.78596102110818e-06
1.86430673822873e-06
1.91680219341261e-06
1.95045866481183e-06
1.97112209537629e-06
1.98328171656757e-06
1.99014699500619e-06
1.99386987535444e-06
1.99581099942402e-06
1.99678517566018e-06
1.99725619969134e-06
1.99747577429084e-06
1.9975744841943e-06
1.99761724122943e-06
1.99763500965038e-06
1.99764194568954e-06
1.99764414501698e-06
1.99764376909322e-06
1.99764065834464e-06
1.99763224945078e-06
1.99761177853837e-06
1.99756391825589e-06
1.9974557155254e-06
1.99721910094895e-06
1.99671891505832e-06
1.99569761901785e-06
1.99368536925453e-06
1.98986364664829e-06
1.98287493888948e-06
1.97058352470475e-06
1.94981576580499e-06
1.91614143886985e-06
1.86379287302476e-06
1.78584051370128e-06
1.67473191691985e-06
1.5232401744643e-06
1.32575687730034e-06
1.07972685193324e-06
7.86899572080136e-07
4.54015240070062e-07
1.32070652221484e-09
5.03215538159929e-12
5.99538007607699e-12
1.58295530126143e-09
5.4578745474055e-07
9.46716937577802e-07
1.29947645144436e-06
1.59580775162826e-06
1.83355791507822e-06
2.01579832546162e-06
2.1493002739974e-06
2.24280042252797e-06
2.30543662501359e-06
2.34559628143895e-06
2.370258335191e-06
2.38477684972983e-06
2.39297834191418e-06
2.39742870463121e-06
2.39975088399595e-06
2.4009172893283e-06
2.40148179782686e-06
2.40174523619698e-06
2.40186381279622e-06
2.40191525220635e-06
2.40193667020356e-06
2.40194505556739e-06
2.40194773396068e-06
2.40194731800979e-06
2.40194363983861e-06
2.40193365706e-06
2.40190933258394e-06
2.40185243339112e-06
2.4017237331748e-06
2.4014421602675e-06
2.40084666194393e-06
2.39963023642118e-06
2.39723260738645e-06
2.39267742016347e-06
2.38434494974347e-06
2.36968620578154e-06
2.34491198912342e-06
2.30472957791697e-06
2.24224115829136e-06
2.14914366190515e-06
2.01635609022021e-06
1.83512976210491e-06
1.59856933511038e-06
1.30333444644039e-06
9.51151576111798e-07
5.49699981303379e-07
1.60137513051224e-09
6.09808671261069e-12
6.99055073230408e-12
1.84592091594427e-09
6.35225203491566e-07
1.09969408181278e-06
1.50716015731797e-06
1.84866408291119e-06
2.12218768200295e-06
2.33159514142651e-06
2.48487779231377e-06
2.5921847905944e-06
2.66405927286292e-06
2.71014548798257e-06
2.7384541950723e-06
2.75512610935655e-06
2.76454892490587e-06
2.76966518951252e-06
2.77233674952365e-06
2.77367973649321e-06
2.77433030193229e-06
2.77463421692693e-06
2.77477117850494e-06
2.77483068117733e-06
2.77485550457319e-06
2.77486525230976e-06
2.77486838818639e-06
2.77486794698612e-06
2.7748637606174e-06
2.77485235540098e-06
2.77482454327008e-06
2.77475945889656e-06
2.77461218547207e-06
2.77428984429607e-06
2.77360784845468e-06
2.77221420513549e-06
2.76946632911368e-06
2.76424413499049e-06
2.75468901531185e-06
2.73787532986698e-06
2.70945258964867e-06
2.6633410147544e-06
2.59161008013432e-06
2.48469839858944e-06
2.33211786008506e-06
2.12370580748733e-06
1.85134707868283e-06
1.51091275946072e-06
1.10400731034491e-06
6.39041320933983e-07
1.86430389085035e-09
7.09581313368483e-12
7.91203764546117e-12
2.08957335602922e-09
7.1782892327249e-07
1.24050077093696e-06
1.69783072861048e-06
2.08035665400275e-06
2.38628157456241e-06
2.62025269695147e-06
2.7914026662649e-06
2.91117596619017e-06
2.99139239946234e-06
3.04283263750941e-06
3.07443827342705e-06
3.09305909293476e-06
3.10358864909083e-06
3.10930922942549e-06
3.11229838741133e-06
3.11380219466508e-06
3.11453130231948e-06
3.11487224955581e-06
3.11502608035474e-06
3.11509300831538e-06
3.11512098301176e-06
3.11513200113886e-06
3.11513557047111e-06
3.11513511699976e-06
3.11513047845792e-06
3.11511779711155e-06
3.11508685290498e-06
3.11501441586922e-06
3.11485045119478e-06
3.11449145056745e-06
3.11373162204976e-06
3.11217840607281e-06
3.10911496017674e-06
3.10329147010597e-06
3.09263364107473e-06
3.07387565066692e-06
3.04215988592211e-06
2.99069506455604e-06
2.9106161156643e-06
2.79122065814015e-06
2.62073973324611e-06
2.3877137856351e-06
2.08289050473498e-06
1.70137173036433e-06
1.24456891055266e-06
7.21444249064208e-07
2.10748731226908e-09
8.01766173803905e-12
8.75430940969609e-12
2.31246233091895e-09
7.93190759916063e-07
1.36857697769568e-06
1.87087409561421e-06
2.29027733972522e-06
2.62526657368517e-06
2.88124118187752e-06
3.068384528784e-06
3.19931433991912e-06
3.28699787384975e-06
3.34323331689639e-06
3.37779425405553e-06
3.39816392071615e-06
3.40968789081633e-06
3.41595225978111e-06
3.41922768560147e-06
3.42087672207318e-06
3.42167690861624e-06
3.42205145138242e-06
3.42222063066354e-06
3.42229433939921e-06
3.42232520615071e-06
3.4223373989634e-06
3.42234137582495e-06
3.42234092145038e-06
3.42233588321763e-06
3.4223220655691e-06
3.42228833064046e-06
3.4222093422131e-06
3.42203050162178e-06
3.42163881312233e-06
3.42080954353406e-06
3.41911387386304e-06
3.41576855460177e-06
3.409407711205e-06
3.39776403048085e-06
3.37726719116488e-06
3.34260554052978e-06
3.28635052363641e-06
3.19879938200934e-06
3.06822541411486e-06
2.88170624791e-06
2.62660723825984e-06
2.29263191836719e-06
1.87414972024893e-06
1.37233295031708e-06
7.96545874506859e-07
2.32963425956202e-09
8.85875164077757e-12
9.51449132454927e-12
2.51382362567899e-09
8.61124439042069e-07
1.48372698473693e-06
2.02615227115627e-06
2.47837754456017e-06
2.83918916757679e-06
3.11469210551114e-06
3.31602273094862e-06
3.45684884198398e-06
3.55115826662638e-06
3.61165145923899e-06
3.64883882853146e-06
3.67076447156582e-06
3.68317435312949e-06
3.68992390516684e-06
3.69345517861697e-06
3.69523425729441e-06
3.69609822585698e-06
3.69650298955377e-06
3.69668601627255e-06
3.69676586537403e-06
3.69679936415455e-06
3.69681263387939e-06
3.69681699060749e-06
3.69681654456259e-06
3.69681115606373e-06
3.69679633450628e-06
3.6967601330343e-06
3.69667535548162e-06
3.69648336868977e-06
3.69606278262714e-06
3.69517209298227e-06
3.69335035625399e-06
3.68975546078785e-06
3.6829186218296e-06
3.67040133573319e-06
3.64836317173711e-06
3.61108965272693e-06
3.55058669220999e-06
3.45640774478445e-06
3.31591554756453e-06
3.11515992272241e-06
2.84045385595874e-06
2.48055548685119e-06
2.02915141506981e-06
1.48714971754723e-06
8.6419648191188e-07
2.53011258727797e-09
9.61676573851836e-12
1.01920731167258e-11
2.6935046502789e-09
9.21638867134087e-07
1.58607024173009e-06
2.16393362967252e-06
2.64508161385368e-06
3.02861585921761e-06
3.32128943234123e-06
3.53509095207709e-06
3.68461717468401e-06
3.78475424882247e-06
3.84899497352311e-06
3.88849626174634e-06
3.91179433269709e-06
3.92498667303274e-06
3.93216540368364e-06
3.93592337813251e-06
3.93781790376894e-06
3.93873861735389e-06
3.93917033427667e-06
3.93936574773907e-06
3.9394511100258e-06
3.93948698382836e-06
3.93950123229065e-06
3.93950593977538e-06
3.93950550942886e-06
3.93949981670793e-06
3.93948411554938e-06
3.93944575237384e-06
3.93935590319583e-06
3.93915240004759e-06
3.93870649214907e-06
3.9377619587135e-06
3.93582965129203e-06
3.93201575503315e-06
3.9247610622479e-06
3.91147662006119e-06
3.88808458521681e-06
3.84851638719217e-06
3.78428075008711e-06
3.68427698907273e-06
3.53506633906849e-06
3.32179220454659e-06
3.02983573618806e-06
2.64711040155305e-06
2.16667800424021e-06
1.58917430475853e-06
9.24433609488184e-07
2.70887658030624e-09
1.02916627828466e-11
1.07885817698641e-11
2.85188157735114e-09
9.749093462015e-07
1.6759905816731e-06
2.28482335672317e-06
2.79120242685233e-06
3.19453764336388e-06
3.50216610100419e-06
3.72682822836039e-06
3.88393317874977e-06
3.9891495950472e-06
4.05665927428346e-06
4.09818103528598e-06
4.12267892964401e-06
4.13655626538076e-06
4.14411129765255e-06
4.14806838492302e-06
4.15006450290227e-06
4.15103525947377e-06
4.15149080536293e-06
4.15169720236969e-06
4.15178747163038e-06
4.1518254698722e-06
4.1518406000166e-06
4.1518456283202e-06
4.15184521925941e-06
4.15183926481562e-06
4.15182279973641e-06
4.15178255882099e-06
4.15168830657885e-06
4.15147480666791e-06
4.15100691363127e-06
4.15001561306398e-06
4.14798722336302e-06
4.1439829383146e-06
4.1363648419802e-06
4.12241299944555e-06
4.09784285572048e-06
4.05627752366079e-06
3.98879278616953e-06
3.88371822261938e-06
3.72691655325751e-06
3.50274007838985e-06
3.19575401485515e-06
2.79312673501506e-06
2.28735805630925e-06
1.67881640327623e-06
9.77453758262816e-07
2.86638508182006e-09
1.08853502078934e-11
1.13072332185617e-11
2.98977122232485e-09
1.02124795033494e-06
1.7540857983184e-06
2.38969602160837e-06
2.91786086066102e-06
3.33827982533783e-06
3.6588070106955e-06
3.8928372562654e-06
4.05648202488514e-06
4.16608437093543e-06
4.23641922015132e-06
4.27968903437794e-06
4.30522627720417e-06
4.31969783033616e-06
4.32757981030981e-06
4.3317101980817e-06
4.33379490986789e-06
4.33480940159591e-06
4.33528582501965e-06
4.33550187396073e-06
4.3355964715165e-06
4.33563635302723e-06
4.33565227026948e-06
4.33565758921684e-06
4.33565720542671e-06
4.33565102812718e-06
4.33563390583241e-06
4.33559204922341e-06
4.33549401072626e-06
4.33527191629515e-06
4.33478511888112e-06
4.3337535898482e-06
4.33164251514235e-06
4.32747431758051e-06
4.31954323514722e-06
4.30501640731002e-06
4.27943104979329e-06
4.2361444380858e-06
4.16585906000976e-06
4.05641319310843e-06
3.89306694803474e-06
3.65948937603453e-06
3.33953916358634e-06
2.91973557006143e-06
2.39208093141688e-06
1.75669077204593e-06
1.02358339980066e-06
3.00351463685122e-09
1.14013369075081e-11
1.17525718815077e-11
3.10833933350134e-09
1.06107349138985e-06
1.82111776019035e-06
2.47962993031736e-06
3.02640820761867e-06
3.46141574278889e-06
3.79295661256273e-06
4.0349877890083e-06
4.20422082218247e-06
4.31757374372279e-06
4.39032680182831e-06
4.4350945585557e-06
4.46152359592664e-06
4.47650574890924e-06
4.4846691221476e-06
4.48894892951316e-06
4.49111017726658e-06
4.49216253501804e-06
4.49265708000883e-06
4.49288153203944e-06
4.49297991211152e-06
4.49302144764583e-06
4.49303806103369e-06
4.49304364074485e-06
4.49304328480401e-06
4.49303691986915e-06
4.49301923792308e-06
4.49297600517169e-06
4.49287474388401e-06
4.49264533573708e-06
4.49214244877189e-06
4.49107666868717e-06
4.48889516360351e-06
4.4845872854883e-06
4.4763893834404e-06
4.46137222673181e-06
4.43492091894444e-06
4.39016585219536e-06
4.31749092540754e-06
4.20431509298692e-06
4.0353839933543e-06
3.79378286516683e-06
3.46276543025353e-06
3.02829237531406e-06
2.48193227996616e-06
1.82356850093707e-06
1.06324974180823e-06
3.12146973616529e-09
1.18443770570064e-11
1.21301064544572e-11
3.20900715348349e-09
1.09488144654516e-06
1.87796326852633e-06
2.55584312019098e-06
3.11835102307903e-06
3.56568352038941e-06
3.90652995561746e-06
4.15532376510798e-06
4.32928313317413e-06
4.44581080498194e-06
4.52061290363253e-06
4.56665144015164e-06
4.59383805470277e-06
4.60925461379244e-06
4.61765778688293e-06
4.62206515993427e-06
4.62429188100295e-06
4.62537670430085e-06
4.62588682627164e-06
4.62611852351598e-06
4.62622017735689e-06
4.62626315165411e-06
4.62628037487287e-06
4.62628618626378e-06
4.62628585957315e-06
4.62627933865417e-06
4.6262611854854e-06
4.62621679354866e-06
4.6261128192321e-06
4.62587725559804e-06
4.62536082470835e-06
4.62426620115527e-06
4.62202535688949e-06
4.61759973899277e-06
4.60917683395482e-06
4.59374604980441e-06
4.56656405480916e-06
4.52056966907046e-06
4.44587779217433e-06
4.32955331842671e-06
4.15590740015052e-06
3.90753190944672e-06
3.56716846971327e-06
3.1203030010956e-06
2.55813138429169e-06
1.88032920279797e-06
1.09695160350119e-06
3.22169205614932e-09
1.22201137787096e-11
1.2445952867274e-11
3.29335906763238e-09
1.12321455774388e-06
1.92556652735661e-06
2.61963185094406e-06
3.1952791749626e-06
3.65290653277683e-06
4.00152777838962e-06
4.25597469532624e-06
4.43388787533895e-06
4.55307385391936e-06
4.62959356673967e-06
4.6766986862907e-06
4.70452204774799e-06
4.72030429965401e-06
4.72890968901936e-06
4.73342483721393e-06
4.73570698867815e-06
4.73681936107104e-06
4.73734273590871e-06
4.73758061660167e-06
4.73768507531211e-06
4.73772928859595e-06
4.7377470407406e-06
4.73775305594384e-06
4.73775275895325e-06
4.73774611026692e-06
4.73772756533759e-06
4.73768220895081e-06
4.73757597852283e-06
4.73733529684881e-06
4.73680760185779e-06
4.7356889784939e-06
4.7333987322067e-06
4.7288750378181e-06
4.72026461448707e-06
4.70448896957399e-06
4.67669756730689e-06
4.62966931330624e-06
4.55329455799179e-06
4.43434263517783e-06
4.25676194358958e-06
4.00273222927845e-06
3.65456675704243e-06
3.19735296604398e-06
2.62197109191301e-06
1.92791491303954e-06
1.12523105752822e-06
3.30577134597284e-09
1.25347329978074e-11
1.27064969027981e-11
3.36305471605901e-09
1.14663503220242e-06
1.96489452660736e-06
2.67231309847651e-06
3.25879871732824e-06
3.72491926843161e-06
4.07995738568701e-06
4.3390730798021e-06
4.52025440349836e-06
4.64163995102268e-06
4.71958257398573e-06
4.76757247055529e-06
4.79592483597977e-06
4.81201140511856e-06
4.82078537643854e-06
4.82539055113237e-06
4.82771910487286e-06
4.82885459483343e-06
4.82938912112995e-06
4.82963222163577e-06
4.82973905761009e-06
4.82978432652443e-06
4.82980253266427e-06
4.82980872536954e-06
4.829808457805e-06
4.82980170632423e-06
4.82978284048153e-06
4.82973669302782e-06
4.82962861263962e-06
4.82938373424249e-06
4.82884679902325e-06
4.82770847544918e-06
4.82537764879518e-06
4.82077333574096e-06
4.8120086771583e-06
4.79594923166438e-06
4.76765610633342e-06
4.71977638538617e-06
4.64201530263069e-06
4.5208985174654e-06
4.3400753094315e-06
4.08138544122053e-06
3.72678839451431e-06
3.26104155804103e-06
2.6747617405933e-06
1.96728689980252e-06
1.14864669499815e-06
3.3753610592802e-09
1.27946388485878e-11
1.29180883513338e-11
3.41974882013217e-09
1.16569927196616e-06
1.99689668614709e-06
2.71517267416358e-06
3.31047139964669e-06
3.78350054246137e-06
4.14376135877446e-06
4.4066799769442e-06
4.59052594668673e-06
4.71370695122057e-06
4.79281258871804e-06
4.84152672153855e-06
4.87031280890866e-06
4.88664932772168e-06
4.89556203223712e-06
4.90024145037846e-06
4.90260836000572e-06
4.90376300788828e-06
4.90430680251212e-06
4.90455425625606e-06
4.90466308325146e-06
4.90470924119597e-06
4.9047278326817e-06
4.90473417838646e-06
4.90473393945027e-06
4.90472710714953e-06
4.90470798315624e-06
4.9046611980057e-06
4.90455162626683e-06
4.90430336367875e-06
4.90375897203309e-06
4.90260473670059e-06
4.90024110143725e-06
4.89557154830989e-06
4.88668197044741e-06
4.8703924992284e-06
4.84169246941354e-06
4.79312185399567e-06
4.71423543852245e-06
4.5913608088106e-06
4.40790404732463e-06
4.14542837042001e-06
3.78560518876412e-06
3.31292247397818e-06
2.71778060167852e-06
1.99938663859639e-06
1.16774936753651e-06
3.43210167911263e-09
1.30061612009427e-11
1.30867755591917e-11
3.46502117666845e-09
1.1809358341545e-06
2.02246978090037e-06
2.74942020653403e-06
3.35176220570255e-06
3.83031557083448e-06
4.19475570192117e-06
4.46072039468569e-06
4.64670311895773e-06
4.77132576988361e-06
4.85136662356243e-06
4.90066409843253e-06
4.9298001659392e-06
4.9463387758983e-06
4.955363892801e-06
4.96010361037536e-06
4.96250175221848e-06
4.96367204428471e-06
4.96422343171137e-06
4.96447446520635e-06
4.96458493709569e-06
4.96463183399015e-06
4.96465074853172e-06
4.96465722468873e-06
4.96465701324736e-06
4.96465011940678e-06
4.96463079264971e-06
4.96458350493069e-06
4.96447275718468e-06
4.96422182390785e-06
4.9636715408397e-06
4.96250471557948e-06
4.960115083324e-06
4.95539376401884e-06
4.94640494327618e-06
4.92993252874191e-06
4.90090858219464e-06
4.85178755553237e-06
4.77200405908104e-06
4.64772740430837e-06
4.46216927074663e-06
4.19667169460715e-06
3.8326754514905e-06
3.35445231966547e-06
2.75222799745628e-06
2.02510189053112e-06
1.18306104004146e-06
3.47755389935263e-09
1.31753028591455e-11
1.32180851952715e-11
3.50031820595179e-09
1.19282701589748e-06
2.04242870256116e-06
2.77615164878475e-06
3.38399566689692e-06
3.86686771617121e-06
4.23457828823717e-06
4.50292940842575e-06
4.69058843953823e-06
4.81634383928773e-06
4.89712081182606e-06
4.94687833622897e-06
4.97629100575743e-06
4.99298971031587e-06
5.00210410650025e-06
5.00689184746914e-06
5.00931493841283e-06
5.01049776920122e-06
5.01105526516772e-06
5.01130919134686e-06
5.01142099963216e-06
5.01146850111818e-06
5.01148768260749e-06
5.01149426868001e-06
5.01149408342089e-06
5.01148714496398e-06
5.01146766431302e-06
5.01141999307003e-06
5.01130834655778e-06
5.01105536888456e-06
5.01050056647108e-06
5.00932406091099e-06
5.00691439345135e-06
5.00215309281156e-06
4.99308747261973e-06
4.97647324379753e-06
4.9471978315045e-06
4.89764896833084e-06
4.81716743327189e-06
4.69179887475935e-06
4.50460298482011e-06
4.23674874944504e-06
3.86949628974945e-06
3.38694766047567e-06
2.77919069464222e-06
2.04523837670138e-06
1.19505709541994e-06
3.51314281766961e-09
1.33075301759011e-11
1.33168477844076e-11
3.52690631107387e-09
1.20179412355428e-06
2.05748310433949e-06
2.79631934102073e-06
3.40832096902088e-06
3.89445992292167e-06
4.2646476273006e-06
4.5348090356343e-06
4.72374190012553e-06
4.85035980019033e-06
4.93169853166873e-06
4.9818080145632e-06
5.01143288055244e-06
5.02825477308367e-06
5.03743809265594e-06
5.04226303980687e-06
5.04470553516543e-06
5.04589815975712e-06
5.04646044994464e-06
5.04671665912675e-06
5.04682952934855e-06
5.04687751548851e-06
5.04689691360892e-06
5.04690359102726e-06
5.04690343059854e-06
5.04689646248033e-06
5.04687687127559e-06
5.04682892193815e-06
5.04671662171068e-06
5.04646215221928e-06
5.04590403919183e-06
5.04472041317335e-06
5.04229594941225e-06
5.03750501220442e-06
5.0283822738087e-06
5.01166226409983e-06
4.98219880491914e-06
4.93232931043058e-06
4.85132368774979e-06
4.72513406378363e-06
4.53670506064536e-06
4.26707450057601e-06
3.8973653800533e-06
3.41155061210846e-06
2.79961256871102e-06
2.06049705933029e-06
1.20415211789793e-06
3.54011324039477e-09
1.34076068329813e-11
1.33870661664706e-11
3.54583641647435e-09
1.2081862267442e-06
2.068219581228e-06
2.8107091632588e-06
3.42568530565348e-06
3.91416523948356e-06
4.28613131701553e-06
4.55759520850438e-06
4.74744690878333e-06
4.87468875160863e-06
4.95643520311782e-06
5.00680106890912e-06
5.03658113328319e-06
5.05349352296059e-06
5.06272771896226e-06
5.06758027315016e-06
5.07003724784758e-06
5.07123722556356e-06
5.07180314002802e-06
5.0720610888132e-06
5.07217477597309e-06
5.07222313948786e-06
5.07224270910675e-06
5.07224946113189e-06
5.07224932425067e-06
5.07224233986667e-06
5.07222267700586e-06
5.07217454410371e-06
5.07206180949048e-06
5.07180634181745e-06
5.0712459959681e-06
5.07005752805617e-06
5.06762292365126e-06
5.06281152905327e-06
5.05364911159262e-06
5.03685520789701e-06
5.00725975553388e-06
4.95716428074513e-06
4.87578799901275e-06
4.74901598579696e-06
4.55971019459888e-06
4.28881404016195e-06
3.91735161736679e-06
3.42920241638733e-06
2.81427206515189e-06
2.07145667016975e-06
1.21068894339726e-06
3.55949539453839e-09
1.34794675118862e-11
1.34318216825503e-11
3.55791842922241e-09
1.212272011637e-06
2.07508875705382e-06
2.81992396453438e-06
3.436814529289e-06
3.92680538403196e-06
4.29992307272207e-06
4.57223369614313e-06
4.76268543581244e-06
4.89033686823965e-06
4.97235255841406e-06
5.02288883940163e-06
5.05277281063284e-06
5.06974626790877e-06
5.0790150881112e-06
5.08388660217852e-06
5.08635361840225e-06
5.08755874953531e-06
5.08812723363e-06
5.08838643208401e-06
5.08850071524484e-06
5.08854935936641e-06
5.08856905974934e-06
5.08857587126227e-06
5.08857575680444e-06
5.0885687684218e-06
5.08854906952835e-06
5.08850083958797e-06
5.08838787106924e-06
5.08813185556672e-06
5.08757025813634e-06
5.08637901840037e-06
5.083938494395e-06
5.07911494866515e-06
5.06992860457677e-06
5.05308956222935e-06
5.02341258964454e-06
4.97317624731563e-06
4.89156710964859e-06
4.76442685632559e-06
4.57456371219429e-06
4.30285951145325e-06
3.93027360889694e-06
3.44062406877076e-06
2.82376565995036e-06
2.07856087259867e-06
1.21493059964644e-06
3.57207979578029e-09
1.3526126150558e-11
1.34532119162332e-11
3.56370411575929e-09
1.21423427628417e-06
2.07839654498431e-06
2.82437231198904e-06
3.44219992549044e-06
3.93293603941003e-06
4.30662693883421e-06
4.57936353807047e-06
4.77012090178691e-06
4.89798391688784e-06
4.98014091729429e-06
5.0307681925981e-06
5.06070869226581e-06
5.07771604118418e-06
5.08700448510492e-06
5.0918869834929e-06
5.09435995222941e-06
5.09556821294587e-06
5.09613829851659e-06
5.09639829845825e-06
5.09651297663688e-06
5.09656181409224e-06
5.09658160894949e-06
5.09658846669419e-06
5.09658837383144e-06
5.09658139265502e-06
5.0965616904523e-06
5.09651344369817e-06
5.0964004282232e-06
5.09614428586397e-06
5.09558235429087e-06
5.09439027634137e-06
5.09194776943457e-06
5.08711980555175e-06
5.07792417353251e-06
5.06106666833427e-06
5.0313549230963e-06
4.98105643002512e-06
4.89934172341524e-06
4.77203082621547e-06
4.58190481977666e-06
4.30981411875633e-06
3.93668475721812e-06
3.44630287733094e-06
2.82849639836287e-06
2.08210935836549e-06
1.21705470459903e-06
3.57839984029624e-09
1.35496128987147e-11
1.34523120665324e-11
3.56347628680743e-09
1.2141664810139e-06
2.07829878240559e-06
2.82426170845602e-06
3.44209039047343e-06
3.93283819777947e-06
4.30654796427566e-06
4.5793072004362e-06
4.77008794515759e-06
4.89797274006875e-06
4.98014842253585e-06
5.03079061748189e-06
5.06074229965501e-06
5.0777575534789e-06
5.08705129267285e-06
5.09193716707478e-06
5.0944121936609e-06
5.09562165992632e-06
5.09619242868036e-06
5.0964528062669e-06
5.09656769014268e-06
5.096616639159e-06
5.0966364947257e-06
5.09664338650063e-06
5.09664331465296e-06
5.09663635155615e-06
5.09661667777026e-06
5.09656849222179e-06
5.0964556118589e-06
5.09619975248236e-06
5.09563837872204e-06
5.09444733892435e-06
5.09200666135543e-06
5.08718175224535e-06
5.07799095064928e-06
5.06114066314492e-06
5.03143907491378e-06
4.98115397853535e-06
4.89945571722301e-06
4.77216340096466e-06
4.5820563342232e-06
4.30998230619124e-06
3.93686406797416e-06
3.44648412773946e-06
2.82866671024747e-06
2.08225222650814e-06
1.21714991446823e-06
3.57872077644996e-09
1.35509344945985e-11
1.34291607538446e-11
3.55724485262763e-09
1.21207143091154e-06
2.07479898126544e-06
2.81959551315161e-06
3.43648869182071e-06
3.92651391133453e-06
4.29968757588625e-06
4.57206567540802e-06
4.76258732765766e-06
4.89030403502312e-06
4.97237581140235e-06
5.02295695534207e-06
5.05287458406168e-06
5.06987185412279e-06
5.07915663666433e-06
5.08403833281983e-06
5.08651155780861e-06
5.08772032698955e-06
5.08829087284538e-06
5.08855121078919e-06
5.08866611434643e-06
5.08871509470563e-06
5.08873497789647e-06
5.08874189180232e-06
5.0887418406055e-06
5.08873490681388e-06
5.08871529395586e-06
5.08866724933165e-06
5.08855468961395e-06
5.0882995297714e-06
5.08773961811218e-06
5.0865515142963e-06
5.08411651348454e-06
5.07930218591842e-06
5.07013040906704e-06
5.05331311645721e-06
5.02366672101443e-06
4.97347065798594e-06
4.89191088353889e-06
4.76482627682279e-06
4.57501966470033e-06
4.30336495386745e-06
3.93081164619328e-06
3.44116698047898e-06
2.8242748266205e-06
2.07898709475319e-06
1.21521401079918e-06
3.57303339304268e-09
1.35300487773262e-11
1.33827665904251e-11
3.5447483589071e-09
1.2078615704894e-06
2.06774858484791e-06
2.81017311769931e-06
3.42515156399919e-06
3.91368634024417e-06
4.28574359262869e-06
4.55731846682908e-06
4.74728589432672e-06
4.87463629197579e-06
4.95647634911593e-06
5.00691729734583e-06
5.03675381266848e-06
5.05370621044789e-06
5.06296726138281e-06
5.06783696380018e-06
5.07030440305995e-06
5.07151051555848e-06
5.07207990742749e-06
5.07233977780907e-06
5.07245451058798e-06
5.0725034402086e-06
5.07252331716919e-06
5.07253024109995e-06
5.07253021044396e-06
5.07252331810723e-06
5.07250380095362e-06
5.07245598202972e-06
5.07234393946673e-06
5.0720899190015e-06
5.07153242199752e-06
5.07034924932305e-06
5.06792396317714e-06
5.06312810507725e-06
5.05399020967567e-06
5.03723286325285e-06
5.0076887061058e-06
4.95766063336696e-06
4.87636667976454e-06
4.74968704866693e-06
4.56047447556984e-06
4.28965899825627e-06
3.91824828640996e-06
3.43010405840401e-06
2.81511441430062e-06
2.07215886442223e-06
1.21115384340121e-06
3.56105437331951e-09
1.34858713111038e-11
1.33111237988139e-11
3.52545836724303e-09
1.20136054318512e-06
2.05684960422544e-06