/*--------------------------------*- C++ -*----------------------------------*\
  =========                 |
  \\      /  F ield         | OpenFOAM: The Open Source CFD Toolbox
   \\    /   O peration     | Website:  https://openfoam.org
    \\  /    A nd           | Version:  10
     \\/     M anipulation  |
\*---------------------------------------------------------------------------*/
FoamFile
{
    format      ascii;
    class       volScalarField;
    location    "9.4";
    object      omega;
}
// * * * * * * * * * * * * * * * * * * * * * * * * * * * * * * * * * * * * * //

dimensions      [0 0 -1 0 0 0 0];

internalField   nonuniform List<scalar> 
2500
(
127803.420958068
127811.637778477
127809.528786177
127807.698685256
127806.407762001
127805.563511145
127805.031038835
127804.702717668
127804.505125479
127804.389993855
127804.324369203
127804.288414387
127804.269387355
127804.259408865
127804.254298118
127804.251596657
127804.250331892
127804.249580055
127804.249055446
127804.2487523
127804.248534046
127804.248367056
127804.248239315
127804.248165574
127804.248091566
127804.248038588
127804.248027809
127804.248039984
127804.248083102
127804.24816525
127804.248303528
127804.248571333
127804.248968822
127804.249681804
127804.251036377
127804.253692303
127804.258930378
127804.269055063
127804.288745151
127804.325188721
127804.391043278
127804.506551826
127804.703346248
127805.02966636
127805.560066744
127806.401652809
127807.694543676
127809.534765703
127811.649526107
127803.39672982
31875.1479444375
14166.084086247
14165.0405547296
14164.1714688546
14163.5550865724
14163.146588937
14162.8846356942
14162.7203970823
14162.6198099374
14162.5598890876
14162.5252545962
14162.5058938323
14162.4954344181
14162.4899626439
14162.4871904783
14162.4858243271
14162.4851752111
14162.4848670842
14162.4847177232
14162.4846457966
14162.4846083052
14162.4845863657
14162.484572316
14162.4845636329
14162.4845566864
14162.4845517755
14162.4845500955
14162.4845511266
14162.4845564751
14162.484570421
14162.4846024119
14162.484674169
14162.4848271516
14162.4851545619
14162.4858456365
14162.487275113
14162.4901549573
14162.4957856343
14162.5064710527
14162.5260728637
14162.5609000801
14162.620869886
14162.7211557118
14162.8846143901
14163.1454553666
14163.5532508179
14164.1712842426
14165.0459454693
14166.0937771066
31875.1061894456
31801.2451887923
3533.13860206667
50.8715017868549
50.8669593944226
50.8637777738157
50.8616815047233
50.86034192411
50.8595037515801
50.8589907814102
50.8586849938315
50.8585080497227
50.8584089302791
50.8583552433326
50.8583271177474
50.8583128631956
50.8583058639679
50.8583025405938
50.858300995083
50.8583002821354
50.8582999562167
50.8582998018328
50.8582997219655
50.858299676148
50.858299648759
50.8582996290498
50.8582996154142
50.8582996098279
50.8582996127964
50.8582996325481
50.8582996905612
50.8582998343098
50.858300171325
50.8583009270318
50.8583025792917
50.8583061024566
50.8583134226823
50.8583281914448
50.8583570680887
50.8584117595068
50.8585119790727
50.858689828588
50.8589958271512
50.8595075162227
50.8603423892904
50.8616775637211
50.8637729513355
50.8669679806381
50.8715479712183
3533.14460958318
31801.227231995
31730.3558621607
3525.13887405169
50.7554349262959
50.7504138348531
50.7469793792006
50.7447597988748
50.7433662230766
50.7425081192591
50.7419903195203
50.7416854109321
50.74151086972
50.7414140158563
50.7413619957581
50.7413349602383
50.7413213639663
50.7413147436988
50.7413116246599
50.7413101933097
50.7413095479181
50.7413092608421
50.7413091307011
50.7413090671416
50.7413090325422
50.7413090123088
50.7413089984491
50.7413089887248
50.7413089838587
50.7413089842082
50.7413089974986
50.7413090439345
50.741309166197
50.741309463123
50.7413101484223
50.7413116707294
50.7413149538818
50.7413218434396
50.7413358723262
50.7413635508554
50.7414164417172
50.7415142986861
50.7416897516497
50.7419950577933
50.7425121005259
50.7433679295387
50.7447589870153
50.746981565264
50.7504376800702
50.7555131185801
3525.14926904325
31730.4101358243
31668.152752755
3518.17964459609
50.6553030083311
50.6505369829874
50.6473593576183
50.6453491808423
50.6441112717712
50.6433620415469
50.6429165872834
50.6426575276041
50.6425107780485
50.6424300591351
50.6423870271348
50.6423648090754
50.6423537021049
50.6423483261382
50.6423458082877
50.6423446632149
50.6423441547784
50.6423439334919
50.6423438367078
50.6423437917241
50.6423437683559
50.6423437550977
50.6423437463522
50.6423437400191
50.6423437361717
50.6423437349857
50.642343741989
50.642343773695
50.642343864087
50.6423440912699
50.6423446282352
50.642345835931
50.6423484630527
50.6423540191082
50.6423654177428
50.6423880774574
50.6424317210138
50.6425131769913
50.6426606546667
50.6429201541219
50.643365344566
50.6441134822587
50.6453509903411
50.6473676106287
50.6505726657226
50.6554046806365
3518.19367763732
31668.2877180098
31617.6863917781
3512.59517724521
50.5756648845896
50.5716220666488
50.5689956179674
50.5673703012359
50.5663890439425
50.5658053977931
50.5654634390162
50.5652669346162
50.5651566918051
50.5650965220515
50.5650646446531
50.5650482703582
50.5650401208401
50.5650361929665
50.5650343614491
50.5650335341632
50.5650331712648
50.5650330164305
50.5650329510669
50.5650329222723
50.565032908095
50.5650329003935
50.565032895519
50.5650328917879
50.5650328890013
50.5650328873279
50.5650328897866
50.5650329086801
50.5650329689106
50.5650331260617
50.5650335061672
50.5650343703844
50.5650362632389
50.5650402911521
50.5650486039178
50.5650652303015
50.5650974660618
50.5651580863267
50.5652688061935
50.5654656602664
50.5658076186342
50.5663909760363
50.5673732196485
50.5690066776263
50.5716622148739
50.5757746877476
3512.61097498331
31617.8799889394
31579.5403218453
3508.42737322144
50.5167859020322
50.513656524824
50.5116748314622
50.5104752589901
50.5097652613878
50.5093501905539
50.5091104533515
50.5089742487073
50.5088985086372
50.5088574496099
50.50883580866
50.5088247363382
50.5088192430971
50.5088166032478
50.5088153763783
50.508814825258
50.5088145860579
50.5088144859812
50.5088144453378
50.508814428594
50.5088144209298
50.5088144170429
50.5088144147451
50.5088144127971
50.5088144109285
50.5088144094029
50.5088144095347
50.5088144193096
50.5088144558177
50.5088145559872
50.5088148041694
50.5088153742696
50.5088166300819
50.508819315531
50.5088248834906
50.50883607389
50.5088578882217
50.5088991747733
50.5089751700774
50.5091115833125
50.5093513810131
50.5097665129831
50.5104779782676
50.5116855285113
50.5136940396554
50.5168887071964
3508.44280869366
31579.7570744782
31552.5183449511
3505.51615440691
50.4760598802047
50.4738202624477
50.4724368399674
50.4716174601335
50.4711419229054
50.4708686179522
50.4707129478688
50.4706254590833
50.470577203042
50.470551198107
50.4705375495131
50.4705305871456
50.4705271404988
50.4705254874146
50.4705247210433
50.4705243784062
50.4705242311643
50.470524170785
50.4705241473454
50.470524138545
50.4705241349284
50.4705241333132
50.4705241325288
50.470524131681
50.4705241305125
50.4705241292239
50.470524128561
50.4705241329443
50.4705241531608
50.4705242126555
50.4705243639327
50.4705247150392
50.4705254923312
50.4705271609955
50.4705306330033
50.4705376369692
50.4705513499223
50.470577443902
50.4706258040774
50.4707133770972
50.4708690677519
50.4711424808216
50.471619334293
50.4724452950486
50.4738507260491
50.4761455390156
3505.52958507758
31552.7250835626
31534.4914489329
3503.60308718358
50.4495662666169
50.448070522176
50.4471684785426
50.4466454886614
50.4463477832162
50.4461795343048
50.4460850006034
50.4460324211229
50.4460036380102
50.4459882079018
50.4459801373981
50.4459760294539
50.4459739986925
50.4459730258743
50.4459725757128
50.4459723753008
50.4459722900063
50.4459722557463
50.4459722431659
50.4459722390676
50.4459722376054
50.4459722371166
50.4459722371391
50.4459722369197
50.4459722362419
50.4459722352741
50.4459722344896
50.4459722360385
50.4459722463576
50.445972279548
50.4459723663372
50.4459725699456
50.4459730227756
50.4459739978732
50.4459760319614
50.4459801464471
50.445988229437
50.4460036791732
50.4460324844685
50.446085069062
50.4461795663957
50.4463478473907
50.4466464536746
50.4471741840712
50.4480925677398
50.4496309067631
3503.61368018692
31534.6663139661
31523.1182282841
3502.41514069507
50.4332837384241
50.4323449118318
50.4317916000588
50.4314773981598
50.4313019122948
50.4312043667946
50.4311502888901
50.4311205120049
50.4311043264077
50.4310956898685
50.4310911853261
50.4310888959438
50.4310877650329
50.4310872236137
50.431086973428
50.4310868624848
50.4310868157219
50.4310867973339
50.4310867909647
50.43108678933
50.431086789115
50.4310867891904
50.4310867893661
50.431086789355
50.4310867889933
50.4310867883473
50.4310867876998
50.4310867880137
50.431086792874
50.4310868103406
50.4310868574993
50.4310869693912
50.4310872193322
50.4310877587961
50.4310888860251
50.4310911702906
50.4310956689692
50.431104298812
50.4311204729831
50.431150219131
50.4312042260876
50.4313017211268
50.4314776931383
50.4317949335022
50.4323593498257
50.4333284756347
3502.42281241342
31523.252424221
31516.3071959359
3501.71535477611
50.4237924360417
50.4232354607368
50.4229143337889
50.4227356227004
50.4226376556351
50.4225840846289
50.4225547763336
50.4225387960399
50.4225301678027
50.4225255830097
50.4225231971531
50.4225219857232
50.4225213874261
50.422521101034
50.4225209688346
50.4225209104359
50.4225208860666
50.4225208767017
50.4225208737699
50.4225208733382
50.4225208734858
50.4225208737027
50.4225208738859
50.4225208739158
50.4225208737384
50.4225208733213
50.4225208728321
50.4225208727402
50.4225208748755
50.4225208835703
50.4225209079679
50.4225209665385
50.4225210979293
50.4225213819945
50.4225219760745
50.4225231811155
50.422525558281
50.422530131261
50.4225387406794
50.4225546828363
50.4225839132637
50.4226373894118
50.4227355464654
50.4229160056598
50.4232441014379
50.4238211033591
3501.72050710214
31516.4020343079
31512.4225689572
3501.32294293841
50.4185265265627
50.4182127100731
50.4180355278506
50.4179388318597
50.4178867851319
50.4178587823561
50.4178436623774
50.4178354975538
50.41783111738
50.4178287986851
50.4178275942611
50.417826983002
50.4178266810428
50.4178265364659
50.417826469783
50.4178264404392
50.4178264283278
50.4178264238255
50.4178264226095
50.4178264225825
50.417826422767
50.4178264229768
50.41782642312
50.417826423163
50.4178264230779
50.417826422822
50.4178264224914
50.4178264223235
50.4178264231854
50.4178264273057
50.4178264393771
50.4178264687079
50.4178265347784
50.4178266777764
50.4178269768701
50.417827583666
50.417828781717
50.4178310911624
50.41783545574
50.4178435885394
50.4178586416558
50.4178865434674
50.4179386151766
50.4180362142625
50.4182174623387
50.4185436607624
3501.32617699435
31512.4849451293
31510.3062103977
3501.11281787985
50.4157370622239
50.415568457494
50.4154751396289
50.4154251644172
50.4153987426195
50.415384753414
50.4153772983744
50.4153733110591
50.415371185286
50.4153700638895
50.4153694822236
50.4153691870423
50.4153690411333
50.4153689712333
50.415368939014
50.4153689248924
50.4153689191342
50.4153689170903
50.4153689166287
50.4153689166937
50.4153689168469
50.4153689170001
50.4153689170973
50.4153689171343
50.4153689170941
50.4153689169458
50.4153689167423
50.4153689166044
50.415368916918
50.4153689187851
50.4153689245201
50.4153689386253
50.4153689705251
50.4153690396032
50.4153691840023
50.4153694767896
50.4153700549266
50.4153711708606
50.415373286538
50.4153772515477
50.4153846573276
50.4153985618639
50.4154249399998
50.4154753297353
50.4155708642506
50.4157466706782
3501.11472727396
31510.3446966351
31509.2018884717
3501.0050782827
50.4143223467566
50.414235660578
50.4141885801974
50.4141638215059
50.4141509588201
50.4141442561573
50.4141407307342
50.4141388631356
50.4141378735184
50.4141373531532
50.4141370835377
50.4141369466756
50.4141368789595
50.4141368464924
50.4141368315349
50.4141368250067
50.41413682238
50.4141368214961
50.4141368213406
50.414136821409
50.4141368215129
50.4141368216097
50.4141368216692
50.4141368216945
50.4141368216757
50.4141368215946
50.4141368214783
50.4141368213852
50.4141368214842
50.4141368223001
50.4141368249254
50.4141368314612
50.4141368462979
50.4141368784265
50.4141369455043
50.4141370813395
50.4141373493919
50.4141378671117
50.4141388511354
50.4141407049938
50.4141441979422
50.4141508393584
50.4141636442275
50.4141885665015
50.414236780372
50.4143274261627
3501.00614428557
31509.2243056846
31508.6486803886
3500.95205379428
50.4136337785551
50.4135909965671
50.4135681728221
50.4135563783915
50.4135503547289
50.4135472649579
50.4135456610213
50.4135448194565
50.4135443762041
50.4135441438353
50.4135440235366
50.4135439624342
50.4135439321645
50.4135439176363
50.4135439109461
50.4135439080392
50.4135439068859
50.4135439065221
50.4135439064799
50.4135439065272
50.4135439065895
50.413543906645
50.4135439066787
50.4135439066937
50.413543906685
50.4135439066429
50.4135439065807
50.4135439065268
50.4135439065522
50.4135439068953
50.413543908056
50.4135439109827
50.4135439176495
50.4135439320796
50.4135439621512
50.4135440229294
50.4135441427081
50.4135443740325
50.4135448145457
50.4135456483946
50.4135472327112
50.4135502826768
50.4135562576911
50.4135681022048
50.4135914709085
50.4136363195106
3500.95261911866
31508.6610707772
31508.3821180176
3500.92695788228
50.413311567407
50.4132912441506
50.4132805833029
50.413275165827
50.4132724446506
50.4132710704626
50.4132703664321
50.4132700005909
50.413269809055
50.4132697089323
50.4132696571275
50.4132696307916
50.4132696177255
50.4132696114466
50.4132696085563
50.4132696073064
50.413269606819
50.4132696066766
50.4132696066693
50.4132696066967
50.4132696067309
50.4132696067605
50.4132696067782
50.4132696067864
50.4132696067824
50.4132696067616
50.41326960673
50.4132696067008
50.4132696067045
50.413269606845
50.413269607342
50.4132696086119
50.4132696115137
50.4132696177886
50.4132696308343
50.4132696571339
50.413269708861
50.4132698086849
50.4132699990239
50.4132703608442
50.4132710538426
50.4132724042484
50.413275091635
50.4132805155621
50.4132914229946
50.4133127738761
3500.92724377453
31508.3886446795
31508.2584267066
3500.9155241398
50.413166491981
50.413157176475
50.4131523668707
50.4131499616718
50.4131487729005
50.4131481817479
50.4131478828516
50.4131477290407
50.4131476489948
50.4131476072665
50.4131475856834
50.413147574699
50.4131475692399
50.413147566613
50.4131475654043
50.4131475648841
50.4131475646853
50.4131475646314
50.4131475646327
50.4131475646478
50.4131475646653
50.4131475646801
50.413147564689
50.4131475646931
50.4131475646913
50.4131475646815
50.4131475646663
50.4131475646514
50.4131475646502
50.4131475647063
50.4131475649131
50.4131475654482
50.4131475666743
50.4131475693223
50.4131475748119
50.4131475858446
50.4131476074879
50.4131476491973
50.4131477287795
50.4131478806224
50.4131481736824
50.41314875158
50.4131499195103
50.4131523185224
50.4131572330533
50.4131670369404
3500.91566247823
31508.2617152471
31508.2031732532
3500.91051425963
50.4131037342837
50.4130996052547
50.4130975049543
50.4130964705546
50.4130959672267
50.4130957206968
50.4130955976796
50.4130955349954
50.4130955025697
50.4130954857108
50.4130954769926
50.4130954725499
50.4130954703378
50.4130954692718
50.4130954687817
50.4130954685718
50.4130954684933
50.4130954684737
50.413095468476
50.4130954684837
50.4130954684922
50.4130954684992
50.4130954685034
50.4130954685054
50.4130954685046
50.4130954685001
50.4130954684931
50.413095468486
50.4130954684844
50.4130954685062
50.41309546859
50.4130954688094
50.4130954693132
50.4130954703996
50.4130954726447
50.4130954771411
50.4130954859345
50.4130955028468
50.4130955351183
50.4130955968894
50.4130957169778
50.4130959565453
50.4130964480833
50.4130974751934
50.4130996173411
50.4131039688254
3500.91057850041
31508.2047633082
31508.1795074892
3500.90841515754
50.4130778391545
50.4130760659132
50.4130751764039
50.4130747446291
50.4130745376732
50.4130744378028
50.4130743886197
50.4130743638063
50.4130743510488
50.4130743444335
50.413074341013
50.4130743392675
50.4130743383969
50.4130743379769
50.4130743377839
50.4130743377018
50.4130743376718
50.413074337665
50.4130743376666
50.4130743376704
50.4130743376743
50.4130743376774
50.4130743376793
50.4130743376802
50.4130743376799
50.4130743376779
50.4130743376748
50.4130743376716
50.4130743376705
50.4130743376788
50.4130743377118
50.4130743377993
50.4130743380007
50.4130743384345
50.4130743393283
50.4130743411116
50.4130743445869
50.4130743512547
50.4130743639723
50.4130743883811
50.4130744361612
50.4130745325589
50.4130747332869
50.4130751597812
50.4130760648142
50.4130779354091
3500.90844386202
31508.1802473272
31508.1699218637
3500.90759005298
50.4130678875069
50.4130671483605
50.4130667823699
50.413066607138
50.4130665243544
50.4130664849833
50.4130664658475
50.4130664562905
50.4130664514078
50.413066448883
50.4130664475779
50.4130664469112
50.4130664465783
50.4130664464176
50.413066446344
50.4130664463129
50.4130664463018
50.4130664462996
50.4130664463006
50.4130664463024
50.4130664463041
50.4130664463055
50.4130664463063
50.4130664463067
50.4130664463065
50.4130664463057
50.4130664463044
50.4130664463029
50.4130664463023
50.4130664463053
50.4130664463178
50.4130664463517
50.41306644643
50.4130664465985
50.4130664469448
50.4130664476336
50.4130664489713
50.4130664515311
50.4130664564094
50.4130664657942
50.4130664842849
50.4130665220015
50.4130666016783
50.4130667737369
50.4130671449992
50.4130679251684
3500.90760242333
31508.170253958
31508.1664100727
3500.90730468747
50.4130646098703
50.413064310353
50.4130641638284
50.4130640945783
50.4130640623146
50.4130640471878
50.4130640399321
50.4130640363461
50.4130640345264
50.4130640335887
50.4130640331045
50.4130640328573
50.4130640327338
50.4130640326745
50.4130640326474
50.4130640326362
50.4130640326324
50.4130640326319
50.4130640326324
50.4130640326332
50.413064032634
50.4130640326345
50.4130640326349
50.4130640326351
50.413064032635
50.4130640326346
50.413064032634
50.4130640326334
50.413064032633
50.4130640326339
50.4130640326384
50.4130640326509
50.4130640326803
50.4130640327437
50.4130640328741
50.4130640331329
50.4130640336342
50.4130640345915
50.4130640364146
50.4130640399296
50.4130640468995
50.4130640612699
50.4130640920583
50.4130641596004
50.4130643077061
50.4130646238993
3500.90730983996
31508.1665542004
31508.1654386746
3500.9072410792
50.4130640412596
50.4130639231046
50.4130638659493
50.4130638392656
50.4130638269991
50.4130638213286
50.4130638186452
50.4130638173341
50.4130638166741
50.4130638163358
50.4130638161618
50.4130638160733
50.4130638160293
50.4130638160085
50.4130638159992
50.4130638159955
50.4130638159945
50.4130638159945
50.4130638159948
50.4130638159953
50.4130638159956
50.4130638159958
50.413063815996
50.413063815996
50.413063815996
50.4130638159959
50.4130638159956
50.4130638159952
50.4130638159949
50.4130638159951
50.4130638159964
50.4130638160007
50.413063816011
50.4130638160338
50.4130638160809
50.413063816175
50.4130638163573
50.4130638167054
50.4130638173688
50.4130638186515
50.4130638212123
50.4130638265497
50.4130638381457
50.4130638639787
50.4130639215131
50.4130640462186
3500.90724315743
31508.165499276
31508.1654992364
3500.90726598231
50.4130645407336
50.4130644953035
50.4130644735574
50.4130644635225
50.4130644589695
50.4130644568948
50.4130644559274
50.4130644554611
50.4130644552292
50.4130644551115
50.4130644550517
50.4130644550218
50.4130644550073
50.4130644550007
50.4130644549981
50.4130644549972
50.4130644549972
50.4130644549974
50.4130644549977
50.4130644549979
50.4130644549981
50.4130644549982
50.4130644549983
50.4130644549983
50.4130644549983
50.4130644549981
50.413064454998
50.4130644549977
50.4130644549975
50.4130644549973
50.4130644549975
50.4130644549985
50.4130644550016
50.413064455009
50.413064455025
50.4130644550573
50.4130644551209
50.413064455243
50.413064455477
50.4130644559321
50.4130644568485
50.4130644587814
50.4130644630415
50.4130644726777
50.4130644944665
50.4130645423867
3500.90726679539
31508.1655239661
31508.1659675793
3500.90732525953
50.4130654498882
50.4130654328479
50.4130654247722
50.4130654210877
50.413065419438
50.4130654186981
50.4130654183593
50.4130654181993
50.4130654181214
50.4130654180831
50.4130654180643
50.4130654180554
50.4130654180515
50.4130654180501
50.4130654180499
50.41306541805
50.4130654180503
50.4130654180507
50.4130654180509
50.4130654180511
50.4130654180512
50.4130654180513
50.4130654180513
50.4130654180514
50.4130654180513
50.4130654180512
50.4130654180511
50.4130654180509
50.4130654180506
50.4130654180503
50.41306541805
50.4130654180499
50.4130654180503
50.413065418052
50.4130654180565
50.4130654180664
50.4130654180867
50.4130654181271
50.4130654182058
50.4130654183615
50.4130654186796
50.413065419361
50.4130654208872
50.4130654243942
50.4130654324441
50.4130654504019
3500.90732556861
31508.1659773899
31508.1665928921
3500.90739754449
50.4130665121369
50.4130665059002
50.4130665029738
50.4130665016542
50.4130665010721
50.4130665008163
50.4130665007024
50.4130665006507
50.413066500627
50.4130665006163
50.4130665006118
50.4130665006102
50.4130665006101
50.4130665006105
50.4130665006111
50.4130665006116
50.413066500612
50.4130665006124
50.4130665006127
50.4130665006128
50.413066500613
50.413066500613
50.4130665006131
50.413066500613
50.413066500613
50.4130665006129
50.4130665006128
50.4130665006126
50.4130665006123
50.4130665006119
50.4130665006115
50.4130665006109
50.4130665006104
50.4130665006101
50.4130665006104
50.4130665006124
50.4130665006175
50.4130665006289
50.4130665006531
50.413066500703
50.4130665008087
50.4130665010411
50.4130665015729
50.4130665028169
50.4130665057177
50.4130665122825
3500.90739765883
31508.1665966824
31508.167277144
3500.90747463219
50.4130676301969
50.4130676279727
50.4130676269408
50.4130676264818
50.4130676262833
50.413067626199
50.4130676261636
50.4130676261491
50.4130676261438
50.4130676261423
50.4130676261426
50.4130676261435
50.4130676261446
50.4130676261455
50.4130676261464
50.413067626147
50.4130676261476
50.4130676261479
50.4130676261482
50.4130676261484
50.4130676261485
50.4130676261485
50.4130676261486
50.4130676261486
50.4130676261486
50.4130676261484
50.4130676261483
50.4130676261481
50.4130676261478
50.4130676261474
50.4130676261469
50.4130676261462
50.4130676261454
50.4130676261444
50.4130676261434
50.4130676261426
50.4130676261425
50.4130676261441
50.4130676261496
50.4130676261634
50.4130676261956
50.4130676262708
50.4130676264494
50.4130676268776
50.4130676278945
50.4130676302328
3500.90747467342
31508.1672785697
31508.1679830089
3500.90755345216
50.4130687681301
50.4130687673619
50.4130687670112
50.4130687668583
50.4130687667944
50.4130687667692
50.4130687667603
50.4130687667582
50.4130687667587
50.4130687667601
50.4130687667618
50.4130687667634
50.4130687667648
50.4130687667659
50.4130687667668
50.4130687667675
50.4130687667681
50.4130687667684
50.4130687667687
50.4130687667689
50.413068766769
50.413068766769
50.4130687667691
50.4130687667691
50.4130687667691
50.413068766769
50.4130687667689
50.4130687667686
50.4130687667683
50.4130687667679
50.4130687667674
50.4130687667666
50.4130687667657
50.4130687667645
50.4130687667632
50.4130687667615
50.4130687667599
50.4130687667584
50.4130687667579
50.4130687667597
50.4130687667674
50.4130687667891
50.4130687668455
50.4130687669865
50.4130687673301
50.413068768137
3500.90755346666
31508.1679835333
31508.1686966229
3500.90763288321
50.4130699129831
50.4130699127314
50.41306991262
50.4130699125733
50.4130699125553
50.4130699125498
50.4130699125493
50.4130699125508
50.413069912553
50.4130699125552
50.4130699125572
50.4130699125589
50.4130699125602
50.4130699125614
50.4130699125623
50.4130699125629
50.4130699125634
50.4130699125638
50.4130699125641
50.4130699125643
50.4130699125644
50.4130699125645
50.4130699125645
50.4130699125645
50.4130699125644
50.4130699125644
50.4130699125642
50.413069912564
50.4130699125637
50.4130699125633
50.4130699125628
50.4130699125621
50.4130699125611
50.41306991256
50.4130699125585
50.4130699125568
50.4130699125548
50.4130699125525
50.4130699125503
50.4130699125486
50.4130699125485
50.4130699125528
50.4130699125681
50.4130699126105
50.4130699127191
50.413069912984
3500.90763288825
31508.1686968111
31508.169412956
3500.90771252528
50.4130710601946
50.413071060122
50.4130710600926
50.4130710600816
50.4130710600786
50.413071060079
50.4130710600809
50.4130710600832
50.4130710600856
50.4130710600878
50.4130710600896
50.4130710600913
50.4130710600926
50.4130710600936
50.4130710600944
50.4130710600951
50.4130710600956
50.4130710600959
50.4130710600962
50.4130710600964
50.4130710600965
50.4130710600966
50.4130710600966
50.4130710600966
50.4130710600966
50.4130710600965
50.4130710600963
50.4130710600961
50.4130710600958
50.4130710600954
50.4130710600949
50.4130710600943
50.4130710600934
50.4130710600923
50.413071060091
50.4130710600893
50.4130710600873
50.4130710600851
50.4130710600826
50.4130710600801
50.413071060078
50.4130710600771
50.4130710600793
50.413071060089
50.4130710601177
50.4130710601949
3500.90771252703
31508.1694130231
31508.1701302238
3500.90779223876
50.4130722081939
50.4130722081816
50.4130722081794
50.4130722081798
50.4130722081812
50.413072208183
50.4130722081852
50.4130722081874
50.4130722081895
50.4130722081914
50.4130722081931
50.4130722081945
50.4130722081957
50.4130722081966
50.4130722081974
50.413072208198
50.4130722081985
50.4130722081988
50.413072208199
50.4130722081992
50.4130722081993
50.4130722081994
50.4130722081995
50.4130722081994
50.4130722081994
50.4130722081993
50.4130722081992
50.413072208199
50.4130722081987
50.4130722081983
50.4130722081978
50.4130722081972
50.4130722081964
50.4130722081955
50.4130722081942
50.4130722081927
50.413072208191
50.413072208189
50.4130722081868
50.4130722081845
50.4130722081822
50.4130722081801
50.4130722081786
50.4130722081781
50.4130722081805
50.4130722081946
3500.90779223944
31508.1701302475
31508.1708478068
3500.90787197596
50.413073356451
50.4130733564584
50.4130733564646
50.4130733564681
50.4130733564704
50.4130733564722
50.413073356474
50.4130733564758
50.4130733564775
50.4130733564791
50.4130733564805
50.4130733564817
50.4130733564827
50.4130733564836
50.4130733564842
50.4130733564848
50.4130733564852
50.4130733564855
50.4130733564857
50.4130733564859
50.4130733564861
50.4130733564861
50.4130733564862
50.4130733564862
50.4130733564861
50.4130733564861
50.4130733564859
50.4130733564857
50.4130733564855
50.4130733564851
50.4130733564847
50.4130733564842
50.4130733564834
50.4130733564826
50.4130733564815
50.4130733564802
50.4130733564787
50.4130733564771
50.4130733564752
50.4130733564733
50.4130733564714
50.4130733564695
50.4130733564674
50.4130733564642
50.4130733564585
50.4130733564521
3500.90787197622
31508.1708478154
31508.171565494
3500.90795172087
50.4130745047911
50.4130745048043
50.4130745048126
50.4130745048165
50.4130745048185
50.4130745048198
50.4130745048211
50.4130745048224
50.4130745048237
50.4130745048249
50.4130745048261
50.4130745048271
50.4130745048279
50.4130745048286
50.4130745048292
50.4130745048297
50.4130745048301
50.4130745048303
50.4130745048306
50.4130745048308
50.4130745048309
50.4130745048309
50.413074504831
50.413074504831
50.413074504831
50.4130745048309
50.4130745048308
50.4130745048306
50.4130745048303
50.41307450483
50.4130745048296
50.4130745048291
50.4130745048286
50.4130745048278
50.4130745048269
50.4130745048258
50.4130745048246
50.4130745048233
50.4130745048219
50.4130745048205
50.4130745048191
50.4130745048178
50.413074504816
50.4130745048125
50.4130745048049
50.4130745047924
3500.90795172098
31508.1715654952
31508.1722832151
3500.90803146825
50.4130756531573
50.4130756531717
50.4130756531801
50.4130756531836
50.4130756531849
50.4130756531856
50.4130756531863
50.4130756531871
50.413075653188
50.4130756531889
50.4130756531897
50.4130756531905
50.4130756531912
50.4130756531918
50.4130756531923
50.4130756531927
50.4130756531931
50.4130756531933
50.4130756531935
50.4130756531937
50.4130756531938
50.4130756531938
50.4130756531939
50.4130756531939
50.4130756531939
50.4130756531938
50.4130756531937
50.4130756531935
50.4130756531933
50.413075653193
50.4130756531927
50.4130756531923
50.4130756531918
50.4130756531911
50.4130756531904
50.4130756531896
50.4130756531886
50.4130756531876
50.4130756531867
50.4130756531858
50.413075653185
50.4130756531843
50.4130756531831
50.4130756531802
50.4130756531725
50.4130756531587
3500.90803146836
31508.1722832157
31508.1730009471
3500.90811121642
50.4130768015315
50.4130768015457
50.4130768015535
50.4130768015562
50.4130768015568
50.4130768015568
50.413076801557
50.4130768015573
50.4130768015578
50.4130768015583
50.4130768015589
50.4130768015595
50.41307680156
50.4130768015605
50.4130768015609
50.4130768015612
50.4130768015615
50.4130768015618
50.4130768015619
50.4130768015621
50.4130768015622
50.4130768015622
50.4130768015623
50.4130768015623
50.4130768015623
50.4130768015622
50.4130768015621
50.413076801562
50.4130768015618
50.4130768015616
50.4130768015613
50.4130768015609
50.4130768015605
50.41307680156
50.4130768015594
50.4130768015588
50.4130768015581
50.4130768015575
50.4130768015569
50.4130768015565
50.4130768015563
50.4130768015563
50.4130768015559
50.4130768015537
50.4130768015466
50.4130768015331
3500.90811121656
31508.1730009482
31508.1737186825
3500.90819096483
50.4130779499083
50.4130779499216
50.4130779499285
50.4130779499304
50.4130779499302
50.4130779499297
50.4130779499293
50.4130779499291
50.4130779499292
50.4130779499294
50.4130779499298
50.4130779499302
50.4130779499305
50.4130779499309
50.4130779499312
50.4130779499315
50.4130779499317
50.4130779499319
50.4130779499321
50.4130779499322
50.4130779499323
50.4130779499324
50.4130779499324
50.4130779499324
50.4130779499324
50.4130779499324
50.4130779499323
50.4130779499322
50.413077949932
50.4130779499318
50.4130779499316
50.4130779499313
50.413077949931
50.4130779499306
50.4130779499302