/*--------------------------------*- C++ -*----------------------------------*\
  =========                 |
  \\      /  F ield         | OpenFOAM: The Open Source CFD Toolbox
   \\    /   O peration     | Website:  https://openfoam.org
    \\  /    A nd           | Version:  10
     \\/     M anipulation  |
\*---------------------------------------------------------------------------*/
FoamFile
{
    format      ascii;
    class       volScalarField;
    location    "9.4";
    object      p;
}
// * * * * * * * * * * * * * * * * * * * * * * * * * * * * * * * * * * * * * //

dimensions      [1 -1 -2 0 0 0 0];

internalField   nonuniform List<scalar> 
2500
(
100104.901329472
100104.90133006
100104.901330876
100104.901331671
100104.90133229
100104.901332746
100104.901333063
100104.901333282
100104.901333431
100104.901333533
100104.901333602
100104.901333648
100104.90133368
100104.901333702
100104.901333718
100104.901333728
100104.901333736
100104.901333742
100104.901333746
100104.901333749
100104.901333751
100104.901333752
100104.901333753
100104.901333753
100104.901333753
100104.901333753
100104.901333752
100104.901333751
100104.90133375
100104.901333747
100104.901333745
100104.901333741
100104.901333736
100104.90133373
100104.901333721
100104.90133371
100104.901333694
100104.901333671
100104.901333638
100104.90133359
100104.90133352
100104.901333418
100104.901333267
100104.901333047
100104.901332728
100104.901332271
100104.901331646
100104.901330843
100104.901330018
100104.901329433
100104.899078307
100104.899078754
100104.899079429
100104.899080119
100104.899080672
100104.89908109
100104.899081386
100104.899081593
100104.899081736
100104.899081834
100104.899081901
100104.899081946
100104.899081978
100104.899082
100104.899082015
100104.899082026
100104.899082034
100104.899082039
100104.899082043
100104.899082046
100104.899082048
100104.89908205
100104.899082051
100104.899082051
100104.899082051
100104.899082051
100104.89908205
100104.899082049
100104.899082047
100104.899082045
100104.899082043
100104.899082039
100104.899082034
100104.899082028
100104.899082019
100104.899082007
100104.899081991
100104.899081969
100104.899081936
100104.89908189
100104.899081822
100104.899081723
100104.899081579
100104.89908137
100104.899081072
100104.899080652
100104.899080094
100104.899079397
100104.899078713
100104.899078269
100104.896821596
100104.89682194
100104.896822422
100104.896822949
100104.896823383
100104.896823722
100104.896823967
100104.896824144
100104.896824267
100104.896824353
100104.896824412
100104.896824454
100104.896824483
100104.896824503
100104.896824518
100104.896824528
100104.896824536
100104.896824542
100104.896824546
100104.896824549
100104.896824551
100104.896824552
100104.896824553
100104.896824554
100104.896824554
100104.896824553
100104.896824553
100104.896824552
100104.89682455
100104.896824548
100104.896824545
100104.896824541
100104.896824537
100104.89682453
100104.896824522
100104.896824511
100104.896824495
100104.896824474
100104.896824444
100104.896824401
100104.896824341
100104.896824254
100104.89682413
100104.896823952
100104.896823704
100104.896823362
100104.896822924
100104.89682239
100104.8968219
100104.896821556
100104.894559545
100104.894559771
100104.894560057
100104.894560401
100104.894560692
100104.89456093
100104.894561107
100104.894561239
100104.894561334
100104.894561402
100104.894561451
100104.894561486
100104.894561511
100104.894561529
100104.894561543
100104.894561553
100104.89456156
100104.894561565
100104.894561569
100104.894561572
100104.894561574
100104.894561576
100104.894561577
100104.894561577
100104.894561577
100104.894561577
100104.894561576
100104.894561575
100104.894561573
100104.894561571
100104.894561568
100104.894561565
100104.89456156
100104.894561554
100104.894561546
100104.894561536
100104.894561522
100104.894561502
100104.894561476
100104.894561441
100104.894561391
100104.894561322
100104.894561226
100104.894561092
100104.894560913
100104.894560672
100104.894560377
100104.894560027
100104.894559734
100104.894559505
100104.892292657
100104.892292763
100104.892292878
100104.892293052
100104.892293207
100104.892293346
100104.892293455
100104.892293542
100104.892293607
100104.892293657
100104.892293694
100104.892293722
100104.892293743
100104.892293758
100104.89229377
100104.892293779
100104.892293786
100104.892293791
100104.892293795
100104.892293797
100104.892293799
100104.892293801
100104.892293802
100104.892293802
100104.892293802
100104.892293802
100104.892293801
100104.8922938
100104.892293799
100104.892293796
100104.892293794
100104.89229379
100104.892293786
100104.89229378
100104.892293773
100104.892293763
100104.892293751
100104.892293734
100104.892293713
100104.892293684
100104.892293646
100104.892293596
100104.892293529
100104.892293441
100104.89229333
100104.892293189
100104.89229303
100104.892292852
100104.892292731
100104.892292619
100104.89002168
100104.890021683
100104.890021666
100104.8900217
100104.890021742
100104.890021796
100104.890021847
100104.890021893
100104.890021932
100104.890021964
100104.89002199
100104.890022011
100104.890022028
100104.890022041
100104.890022051
100104.890022058
100104.890022064
100104.890022069
100104.890022073
100104.890022075
100104.890022077
100104.890022078
100104.890022079
100104.89002208
100104.89002208
100104.890022079
100104.890022079
100104.890022078
100104.890022076
100104.890022074
100104.890022072
100104.890022068
100104.890022064
100104.890022059
100104.890022052
100104.890022044
100104.890022033
100104.89002202
100104.890022002
100104.890021981
100104.890021954
100104.890021921
100104.890021881
100104.890021833
100104.890021781
100104.890021725
100104.89002168
100104.890021644
100104.890021657
100104.890021649
100104.887747512
100104.887747438
100104.887747334
100104.887747267
100104.887747227
100104.887747216
100104.88774722
100104.887747234
100104.887747251
100104.887747269
100104.887747286
100104.8877473
100104.887747312
100104.887747323
100104.887747331
100104.887747338
100104.887747343
100104.887747347
100104.88774735
100104.887747352
100104.887747354
100104.887747355
100104.887747356
100104.887747357
100104.887747357
100104.887747356
100104.887747356
100104.887747355
100104.887747353
100104.887747351
100104.887747349
100104.887747346
100104.887747342
100104.887747337
100104.887747332
100104.887747324
100104.887747315
100104.887747305
100104.887747292
100104.887747276
100104.887747259
100104.887747241
100104.887747223
100104.887747208
100104.887747202
100104.887747212
100104.88774725
100104.887747316
100104.887747419
100104.887747488
100104.88547102
100104.885470901
100104.885470751
100104.885470622
100104.88547053
100104.885470475
100104.885470447
100104.885470437
100104.885470437
100104.885470443
100104.885470451
100104.88547046
100104.885470469
100104.885470477
100104.885470483
100104.885470489
100104.885470493
100104.885470496
100104.885470499
100104.885470501
100104.885470503
100104.885470504
100104.885470505
100104.885470505
100104.885470505
100104.885470505
100104.885470504
100104.885470503
100104.885470502
100104.8854705
100104.885470498
100104.885470495
100104.885470492
100104.885470488
100104.885470483
100104.885470477
100104.88547047
100104.885470461
100104.885470452
100104.885470443
100104.885470434
100104.885470427
100104.885470426
100104.885470435
100104.885470463
100104.885470517
100104.885470609
100104.885470738
100104.885470888
100104.885471004
100104.883192946
100104.88319281
100104.883192647
100104.883192488
100104.883192368
100104.883192288
100104.883192239
100104.883192212
100104.8831922
100104.883192197
100104.883192198
100104.883192203
100104.883192208
100104.883192213
100104.883192218
100104.883192222
100104.883192226
100104.883192228
100104.883192231
100104.883192233
100104.883192234
100104.883192235
100104.883192236
100104.883192236
100104.883192236
100104.883192236
100104.883192235
100104.883192234
100104.883192233
100104.883192231
100104.883192229
100104.883192227
100104.883192224
100104.883192221
100104.883192216
100104.883192212
100104.883192206
100104.8831922
100104.883192194
100104.88319219
100104.883192187
100104.88319219
100104.883192202
100104.883192228
100104.883192276
100104.883192356
100104.883192477
100104.883192637
100104.883192801
100104.883192936
100104.88091386
100104.880913728
100104.880913572
100104.880913407
100104.880913278
100104.880913186
100104.880913125
100104.880913088
100104.880913067
100104.880913057
100104.880913053
100104.880913053
100104.880913056
100104.880913059
100104.880913062
100104.880913065
100104.880913068
100104.88091307
100104.880913072
100104.880913073
100104.880913074
100104.880913075
100104.880913076
100104.880913076
100104.880913076
100104.880913076
100104.880913075
100104.880913074
100104.880913073
100104.880913072
100104.88091307
100104.880913068
100104.880913066
100104.880913063
100104.880913059
100104.880913056
100104.880913052
100104.880913048
100104.880913046
100104.880913045
100104.880913048
100104.880913057
100104.880913078
100104.880913114
100104.880913175
100104.880913268
100104.880913398
100104.880913564
100104.880913723
100104.880913855
100104.878634167
100104.878634051
100104.878633913
100104.878633757
100104.878633631
100104.878633535
100104.878633469
100104.878633426
100104.878633399
100104.878633384
100104.878633377
100104.878633373
100104.878633373
100104.878633374
100104.878633376
100104.878633378
100104.87863338
100104.878633381
100104.878633383
100104.878633384
100104.878633385
100104.878633385
100104.878633386
100104.878633386
100104.878633386
100104.878633386
100104.878633385
100104.878633384
100104.878633383
100104.878633382
100104.878633381
100104.878633379
100104.878633377
100104.878633375
100104.878633372
100104.87863337
100104.878633368
100104.878633366
100104.878633366
100104.878633368
100104.878633376
100104.87863339
100104.878633417
100104.878633459
100104.878633525
100104.878633621
100104.878633749
100104.878633907
100104.878634048
100104.878634164
100104.876354132
100104.876354037
100104.87635392
100104.876353781
100104.876353664
100104.876353571
100104.876353505
100104.876353459
100104.876353429
100104.87635341
100104.876353399
100104.876353393
100104.87635339
100104.87635339
100104.87635339
100104.876353391
100104.876353392
100104.876353393
100104.876353394
100104.876353395
100104.876353395
100104.876353396
100104.876353396
100104.876353396
100104.876353396
100104.876353396
100104.876353395
100104.876353395
100104.876353394
100104.876353393
100104.876353392
100104.87635339
100104.876353389
100104.876353387
100104.876353386
100104.876353384
100104.876353383
100104.876353384
100104.876353386
100104.876353391
100104.876353402
100104.87635342
100104.87635345
100104.876353495
100104.876353562
100104.876353655
100104.876353774
100104.876353915
100104.876354034
100104.87635413
100104.874073916
100104.874073843
100104.874073747
100104.874073627
100104.874073522
100104.874073436
100104.874073371
100104.874073325
100104.874073293
100104.874073272
100104.874073258
100104.87407325
100104.874073246
100104.874073244
100104.874073243
100104.874073242
100104.874073243
100104.874073243
100104.874073244
100104.874073244
100104.874073245
100104.874073245
100104.874073245
100104.874073245
100104.874073245
100104.874073245
100104.874073244
100104.874073244
100104.874073243
100104.874073242
100104.874073241
100104.87407324
100104.874073239
100104.874073238
100104.874073237
100104.874073237
100104.874073237
100104.874073239
100104.874073243
100104.874073251
100104.874073264
100104.874073285
100104.874073316
100104.874073363
100104.874073427
100104.874073514
100104.87407362
100104.874073742
100104.87407384
100104.874073915
100104.871793614
100104.871793558
100104.871793481
100104.87179338
100104.871793288
100104.87179321
100104.871793149
100104.871793103
100104.871793071
100104.871793048
100104.871793033
100104.871793023
100104.871793017
100104.871793014
100104.871793012
100104.871793011
100104.87179301
100104.87179301
100104.87179301
100104.871793011
100104.871793011
100104.871793011
100104.871793011
100104.871793011
100104.871793011
100104.87179301
100104.87179301
100104.871793009
100104.871793009
100104.871793008
100104.871793008
100104.871793007
100104.871793006
100104.871793006
100104.871793006
100104.871793006
100104.871793008
100104.871793011
100104.871793017
100104.871793026
100104.871793041
100104.871793063
100104.871793095
100104.871793141
100104.871793202
100104.871793281
100104.871793374
100104.871793476
100104.871793555
100104.871793612
100104.869513273
100104.869513232
100104.869513171
100104.869513087
100104.869513008
100104.869512938
100104.869512881
100104.869512838
100104.869512805
100104.869512782
100104.869512766
100104.869512755
100104.869512747
100104.869512743
100104.86951274
100104.869512738
100104.869512737
100104.869512736
100104.869512736
100104.869512736
100104.869512736
100104.869512736
100104.869512735
100104.869512735
100104.869512735
100104.869512735
100104.869512734
100104.869512734
100104.869512734
100104.869512733
100104.869512733
100104.869512732
100104.869512732
100104.869512732
100104.869512733
100104.869512734
100104.869512737
100104.869512741
100104.869512748
100104.869512759
100104.869512775
100104.869512798
100104.86951283
100104.869512874
100104.86951293
100104.869513001
100104.869513081
100104.869513166
100104.869513229
100104.86951327
100104.86723292
100104.86723289
100104.867232841
100104.867232772
100104.867232704
100104.867232642
100104.86723259
100104.867232549
100104.867232518
100104.867232494
100104.867232477
100104.867232465
100104.867232457
100104.867232451
100104.867232448
100104.867232445
100104.867232444
100104.867232442
100104.867232442
100104.867232441
100104.867232441
100104.867232441
100104.867232441
100104.86723244
100104.86723244
100104.86723244
100104.86723244
100104.867232439
100104.867232439
100104.867232439
100104.867232438
100104.867232438
100104.867232439
100104.867232439
100104.86723244
100104.867232442
100104.867232446
100104.867232451
100104.867232459
100104.86723247
100104.867232487
100104.86723251
100104.867232542
100104.867232583
100104.867232635
100104.867232698
100104.867232766
100104.867232836
100104.867232886
100104.867232916
100104.864952564
100104.864952543
100104.864952504
100104.864952447
100104.864952389
100104.864952335
100104.864952288
100104.864952249
100104.864952219
100104.864952196
100104.864952179
100104.864952166
100104.864952157
100104.864952151
100104.864952146
100104.864952143
100104.864952141
100104.86495214
100104.864952139
100104.864952138
100104.864952138
100104.864952137
100104.864952137
100104.864952137
100104.864952136
100104.864952136
100104.864952136
100104.864952136
100104.864952135
100104.864952135
100104.864952135
100104.864952135
100104.864952136
100104.864952137
100104.864952139
100104.864952141
100104.864952145
100104.864952151
100104.86495216
100104.864952172
100104.864952189
100104.864952212
100104.864952242
100104.864952281
100104.864952328
100104.864952383
100104.864952441
100104.864952499
100104.864952538
100104.86495256
100104.862672212
100104.862672196
100104.862672165
100104.862672118
100104.862672069
100104.862672021
100104.862671979
100104.862671944
100104.862671915
100104.862671892
100104.862671875
100104.862671862
100104.862671853
100104.862671846
100104.862671841
100104.862671838
100104.862671835
100104.862671833
100104.862671832
100104.862671831
100104.86267183
100104.86267183
100104.862671829
100104.862671829
100104.862671829
100104.862671828
100104.862671828
100104.862671828
100104.862671828
100104.862671828
100104.862671828
100104.862671829
100104.862671829
100104.862671831
100104.862671833
100104.862671836
100104.862671841
100104.862671847
100104.862671856
100104.862671869
100104.862671886
100104.862671908
100104.862671937
100104.862671972
100104.862672014
100104.862672063
100104.862672112
100104.86267216
100104.862672191
100104.862672207
100104.860391863
100104.860391851
100104.860391827
100104.860391788
100104.860391746
100104.860391705
100104.860391667
100104.860391634
100104.860391607
100104.860391586
100104.860391569
100104.860391556
100104.860391546
100104.860391539
100104.860391534
100104.86039153
100104.860391527
100104.860391525
100104.860391523
100104.860391522
100104.860391521
100104.86039152
100104.86039152
100104.860391519
100104.860391519
100104.860391519
100104.860391519
100104.860391519
100104.860391519
100104.860391519
100104.860391519
100104.86039152
100104.860391521
100104.860391523
100104.860391525
100104.860391529
100104.860391534
100104.860391541
100104.86039155
100104.860391563
100104.860391579
100104.860391601
100104.860391627
100104.86039166
100104.860391698
100104.86039174
100104.860391782
100104.860391821
100104.860391846
100104.860391858
100104.858111518
100104.85811151
100104.85811149
100104.858111458
100104.858111423
100104.858111386
100104.858111353
100104.858111323
100104.858111298
100104.858111277
100104.858111261
100104.858111248
100104.858111238
100104.858111231
100104.858111225
100104.858111221
100104.858111218
100104.858111215
100104.858111214
100104.858111212
100104.858111211
100104.85811121
100104.85811121
100104.858111209
100104.858111209
100104.858111209
100104.858111209
100104.858111209
100104.858111209
100104.858111209
100104.85811121
100104.85811121
100104.858111212
100104.858111214
100104.858111216
100104.85811122
100104.858111226
100104.858111233
100104.858111242
100104.858111255
100104.858111271
100104.858111291
100104.858111316
100104.858111346
100104.85811138
100104.858111416
100104.858111452
100104.858111484
100104.858111504
100104.858111513
100104.855831177
100104.855831171
100104.855831155
100104.855831128
100104.855831098
100104.855831067
100104.855831037
100104.85583101
100104.855830987
100104.855830968
100104.855830952
100104.855830939
100104.85583093
100104.855830922
100104.855830916
100104.855830912
100104.855830908
100104.855830906
100104.855830904
100104.855830902
100104.855830901
100104.8558309
100104.855830899
100104.855830899
100104.855830899
100104.855830898
100104.855830898
100104.855830898
100104.855830898
100104.855830899
100104.8558309
100104.855830901
100104.855830902
100104.855830904
100104.855830907
100104.855830911
100104.855830917
100104.855830924
100104.855830934
100104.855830946
100104.855830961
100104.85583098
100104.855831003
100104.85583103
100104.85583106
100104.855831092
100104.855831122
100104.855831149
100104.855831165
100104.855831171
100104.853550839
100104.853550835
100104.853550821
100104.8535508
100104.853550774
100104.853550747
100104.85355072
100104.853550696
100104.853550675
100104.853550657
100104.853550642
100104.85355063
100104.85355062
100104.853550613
100104.853550607
100104.853550602
100104.853550599
100104.853550596
100104.853550594
100104.853550592
100104.853550591
100104.85355059
100104.853550589
100104.853550588
100104.853550588
100104.853550588
100104.853550588
100104.853550588
100104.853550588
100104.853550589
100104.853550589
100104.853550591
100104.853550592
100104.853550595
100104.853550598
100104.853550602
100104.853550607
100104.853550615
100104.853550624
100104.853550636
100104.853550651
100104.853550668
100104.85355069
100104.853550714
100104.85355074
100104.853550768
100104.853550794
100104.853550815
100104.853550829
100104.853550833
100104.851270504
100104.8512705
100104.85127049
100104.851270472
100104.85127045
100104.851270426
100104.851270403
100104.851270381
100104.851270362
100104.851270345
100104.851270331
100104.85127032
100104.85127031
100104.851270303
100104.851270297
100104.851270292
100104.851270289
100104.851270286
100104.851270283
100104.851270282
100104.85127028
100104.851270279
100104.851270278
100104.851270278
100104.851270278
100104.851270277
100104.851270277
100104.851270277
100104.851270278
100104.851270278
100104.851270279
100104.85127028
100104.851270282
100104.851270285
100104.851270288
100104.851270292
100104.851270298
100104.851270305
100104.851270314
100104.851270325
100104.851270339
100104.851270356
100104.851270375
100104.851270397
100104.85127042
100104.851270444
100104.851270466
100104.851270484
100104.851270494
100104.851270498
100104.84899017
100104.848990168
100104.848990159
100104.848990145
100104.848990126
100104.848990106
100104.848990085
100104.848990066
100104.848990048
100104.848990033
100104.84899002
100104.848990009
100104.84899
100104.848989993
100104.848989987
100104.848989982
100104.848989978
100104.848989975
100104.848989973
100104.848989971
100104.84898997
100104.848989969
100104.848989968
100104.848989967
100104.848989967
100104.848989967
100104.848989967
100104.848989967
100104.848989967
100104.848989968
100104.848989969
100104.84898997
100104.848989972
100104.848989974
100104.848989978
100104.848989982
100104.848989988
100104.848989995
100104.848990003
100104.848990014
100104.848990027
100104.848990042
100104.84899006
100104.848990079
100104.848990099
100104.84899012
100104.848990138
100104.848990153
100104.848990162
100104.848990164
100104.846709839
100104.846709837
100104.84670983
100104.846709818
100104.846709803
100104.846709785
100104.846709767
100104.84670975
100104.846709734
100104.84670972
100104.846709708
100104.846709698
100104.846709689
100104.846709682
100104.846709676
100104.846709672
100104.846709668
100104.846709665
100104.846709663
100104.846709661
100104.846709659
100104.846709658
100104.846709657
100104.846709657
100104.846709656
100104.846709656
100104.846709656
100104.846709656
100104.846709657
100104.846709657
100104.846709658
100104.84670966
100104.846709662
100104.846709664
100104.846709667
100104.846709672
100104.846709677
100104.846709684
100104.846709692
100104.846709702
100104.846709714
100104.846709728
100104.846709744
100104.846709761
100104.846709779
100104.846709796
100104.846709812
100104.846709824
100104.846709831
100104.846709833
100104.844429509
100104.844429508
100104.844429502
100104.844429492
100104.844429479
100104.844429465
100104.844429449
100104.844429434
100104.84442942
100104.844429407
100104.844429396
100104.844429386
100104.844429378
100104.844429371
100104.844429366
100104.844429361
100104.844429357
100104.844429355
100104.844429352
100104.84442935
100104.844429349
100104.844429348
100104.844429347
100104.844429346
100104.844429346
100104.844429345
100104.844429345
100104.844429346
100104.844429346
100104.844429347
100104.844429348
100104.844429349
100104.844429351
100104.844429354
100104.844429357
100104.844429361
100104.844429366
100104.844429373
100104.84442938
100104.84442939
100104.844429401
100104.844429414
100104.844429428
100104.844429443
100104.844429458
100104.844429473
100104.844429486
100104.844429496
100104.844429502
100104.844429503
100104.84214918
100104.84214918
100104.842149175
100104.842149167
100104.842149157
100104.842149144
100104.842149131
100104.842149117
100104.842149105
100104.842149093
100104.842149083
100104.842149074
100104.842149066
100104.84214906
100104.842149055
100104.84214905
100104.842149047
100104.842149044
100104.842149042
100104.84214904
100104.842149038
100104.842149037
100104.842149036
100104.842149035
100104.842149035
100104.842149035
100104.842149035
100104.842149035
100104.842149035
100104.842149036
100104.842149037
100104.842149039
100104.84214904
100104.842149043
100104.842149046
100104.84214905
100104.842149055
100104.842149061
100104.842149068
100104.842149077
100104.842149087
100104.842149099
100104.842149111
100104.842149124
100104.842149138
100104.84214915
100104.842149161
100104.842149169
100104.842149173
100104.842149174
100104.839868852
100104.839868852
100104.839868849
100104.839868843
100104.839868834
100104.839868824
100104.839868812
100104.839868801
100104.83986879
100104.839868779
100104.83986877
100104.839868762
100104.839868755
100104.839868749
100104.839868744
100104.839868739
100104.839868736
100104.839868733
100104.839868731
100104.839868729
100104.839868727
100104.839868726
100104.839868725
100104.839868725
100104.839868724
100104.839868724
100104.839868724
100104.839868724
100104.839868725
100104.839868725
100104.839868726
100104.839868728
100104.83986873
100104.839868732
100104.839868735
100104.839868739
100104.839868744
100104.839868749
100104.839868756
100104.839868764
100104.839868773
100104.839868783
100104.839868795
100104.839868806
100104.839868818
100104.839868828
100104.839868837
100104.839868843
100104.839868846
100104.839868846
100104.837588525
100104.837588526
100104.837588524
100104.837588519
100104.837588512
100104.837588504
100104.837588494
100104.837588484
100104.837588474
100104.837588465
100104.837588457
100104.837588449
100104.837588443
100104.837588437
100104.837588432
100104.837588428
100104.837588425
100104.837588422
100104.83758842
100104.837588418
100104.837588417
100104.837588416
100104.837588415
100104.837588414
100104.837588413
100104.837588413
100104.837588413
100104.837588413
100104.837588414
100104.837588415
100104.837588416
100104.837588417
100104.837588419
100104.837588421
100104.837588424
100104.837588428
100104.837588432
100104.837588437
100104.837588444
100104.837588451
100104.837588459
100104.837588468
100104.837588478
100104.837588488
100104.837588497
100104.837588506
100104.837588513
100104.837588518
100104.83758852
100104.837588519
100104.835308199
100104.8353082
100104.835308199
100104.835308196
100104.835308191
100104.835308184
100104.835308176
100104.835308167
100104.835308159
100104.835308151
100104.835308143
100104.835308136
100104.83530813
100104.835308125
100104.835308121
100104.835308117
100104.835308114
100104.835308111
100104.835308109
100104.835308107
100104.835308106
100104.835308105
100104.835308104
100104.835308103
100104.835308103
100104.835308102
100104.835308102
100104.835308103
100104.835308103
100104.835308104
100104.835308105
100104.835308106
100104.835308108
100104.83530811
100104.835308113
100104.835308116
100104.83530812
100104.835308125
100104.835308131
100104.835308137
100104.835308145
100104.835308153
100104.835308161
100104.835308169
100104.835308177
100104.835308184
100104.83530819
100104.835308193
100104.835308194
100104.835308193
100104.833027873
100104.833027875
100104.833027875
100104.833027873
100104.833027869
100104.833027864
100104.833027857
100104.83302785
100104.833027843
100104.833027836
100104.833027829
100104.833027823
100104.833027818
100104.833027813
100104.833027809
100104.833027806
100104.833027803
100104.8330278
100104.833027798
100104.833027796
100104.833027795
100104.833027794
100104.833027793
100104.833027792
100104.833027792
100104.833027792
100104.833027792
100104.833027792
100104.833027792
100104.833027793
100104.833027794
100104.833027795
100104.833027797
100104.833027799
100104.833027802
100104.833027805
100104.833027808
100104.833027813
100104.833027818
100104.833027824
100104.83302783
100104.833027837
100104.833027844
100104.833027851
100104.833027858
100104.833027863
100104.833027867
100104.833027869
100104.833027869
100104.833027867
100104.830747548
100104.830747551
100104.830747552
100104.830747551
100104.830747549
100104.830747545
100104.830747539
100104.830747534
100104.830747527
100104.830747521
100104.830747516
100104.83074751
100104.830747506
100104.830747501
100104.830747498
100104.830747494
100104.830747492
100104.830747489
100104.830747487
100104.830747486
100104.830747484
100104.830747483
100104.830747482
100104.830747482
100104.830747481
100104.830747481
100104.830747481
100104.830747481
100104.830747481
100104.830747482
100104.830747483
100104.830747484
100104.830747486
100104.830747488
100104.83074749
100104.830747493
100104.830747496
100104.8307475
100104.830747505
100104.83074751
100104.830747516
100104.830747521
100104.830747527
100104.830747533
100104.830747538
100104.830747542
100104.830747545
100104.830747545
100104.830747545
100104.830747542
100104.828467223
100104.828467227
100104.828467229
100104.828467229
100104.828467228
100104.828467225
100104.828467222
100104.828467217
100104.828467212
100104.828467207
100104.828467202
100104.828467197
100104.828467193
100104.828467189
100104.828467186
100104.828467183
100104.82846718
100104.828467178
100104.828467176
100104.828467175
100104.828467173
100104.828467172
100104.828467171
100104.828467171
100104.82846717
100104.82846717
100104.82846717
100104.82846717
100104.828467171
100104.828467171
100104.828467172
100104.828467173
100104.828467175
100104.828467176
100104.828467179
100104.828467181
100104.828467184
100104.828467188
100104.828467192
100104.828467196
100104.828467201
100104.828467206
100104.828467211
100104.828467215
100104.828467219
100104.828467222
100104.828467223
100104.828467222
100104.828467221
100104.828467217
100104.826186899
100104.826186903
100104.826186906
100104.826186908
100104.826186908
100104.826186907
100104.826186904
100104.8261869
100104.826186896
100104.826186892
100104.826186888
100104.826186884
100104.82618688
100104.826186877
100104.826186874
100104.826186871
100104.826186869
100104.826186867
100104.826186865
100104.826186864
100104.826186862
100104.826186861
100104.826186861
100104.82618686
100104.826186859
100104.826186859
100104.826186859
100104.826186859
100104.82618686
100104.82618686
100104.826186861
100104.826186862
100104.826186863
100104.826186865
100104.826186867
100104.826186869
100104.826186872
100104.826186875
100104.826186879
100104.826186882
100104.826186886
100104.82618689
100104.826186894
100104.826186898
100104.8261869
100104.826186902
100104.826186902
100104.8261869
100104.826186897
100104.826186893
100104.823906575
100104.82390658
100104.823906584
100104.823906587
100104.823906588
100104.823906588
100104.823906586
100104.823906584
100104.823906581
100104.823906577
100104.823906574
100104.823906571
100104.823906568
100104.823906565
100104.823906562
100104.823906559
100104.823906557
100104.823906555
100104.823906554
100104.823906552
100104.823906551
100104.82390655
100104.82390655
100104.823906549
100104.823906549
100104.823906548
100104.823906548
100104.823906548
100104.823906549
100104.823906549
100104.82390655
100104.823906551
100104.823906552
100104.823906554
100104.823906555
100104.823906557
100104.82390656
100104.823906562