/*--------------------------------*- C++ -*----------------------------------*\
  =========                 |
  \\      /  F ield         | OpenFOAM: The Open Source CFD Toolbox
   \\    /   O peration     | Website:  https://openfoam.org
    \\  /    A nd           | Version:  10
     \\/     M anipulation  |
\*---------------------------------------------------------------------------*/
FoamFile
{
    format      ascii;
    class       volScalarField;
    location    "9.4";
    object      p_rgh;
}
// * * * * * * * * * * * * * * * * * * * * * * * * * * * * * * * * * * * * * //

dimensions      [1 -1 -2 0 0 0 0];

internalField   nonuniform List<scalar> 
2500
(
105.014912428393
105.014913429273
105.014917056324
105.014920291374
105.014922631366
105.014924211864
105.014925238429
105.014925894953
105.014926307049
105.014926561882
105.014926717689
105.014926812073
105.01492686916
105.014926904201
105.014926926146
105.014926940319
105.014926949618
105.01492695605
105.014926960604
105.01492696382
105.014926966076
105.014926967604
105.014926968593
105.014926969088
105.014926969161
105.014926968855
105.014926968142
105.014926967022
105.014926965421
105.014926963253
105.014926960357
105.014926956457
105.014926951248
105.014926944059
105.014926933873
105.014926918841
105.014926895848
105.014926859585
105.014926800781
105.014926704695
105.014926547359
105.014926291056
105.014925878728
105.01492522347
105.014924198404
105.014922618531
105.01492027058
105.014917014079
105.014913369843
105.014912417129
105.015162306358
105.015168066762
105.015177293826
105.015185107593
105.015190712831
105.015194479303
105.015196923094
105.015198477369
105.015199444766
105.015200033929
105.015200384616
105.015200589027
105.015200706184
105.015200772847
105.015200810856
105.015200832931
105.015200846057
105.015200854235
105.015200859576
105.015200863141
105.015200865542
105.015200867158
105.015200868176
105.015200868685
105.015200868787
105.015200868482
105.015200867783
105.015200866634
105.015200865004
105.015200862748
105.015200859678
105.015200855414
105.015200849317
105.015200840237
105.015200826005
105.01520080262
105.015200762879
105.015200694033
105.015200574126
105.015200366746
105.01520001344
105.015199422807
105.015198456735
105.015196907581
105.015194471154
105.015190707651
105.015185083859
105.01517721705
105.015167946287
105.015162420401
105.015434658591
105.015446184858
105.01545994464
105.015471066494
105.015478921487
105.015484150761
105.015487521974
105.015489653757
105.01549097379
105.015491773214
105.015492245657
105.015492518447
105.01549267277
105.015492758888
105.015492806764
105.015492833612
105.015492849008
105.015492858205
105.015492863982
105.015492867722
105.01549287021
105.01549287184
105.015492872873
105.015492873383
105.015492873485
105.015492873164
105.015492872466
105.015492871345
105.015492869701
105.015492867416
105.015492864273
105.015492859806
105.015492853243
105.015492843086
105.015492826467
105.015492798091
105.015492748222
105.015492659528
105.015492502018
105.015492225721
105.015491750179
105.015490949198
105.015489630969
105.015487505472
105.015484142612
105.015478912435
105.015471021368
105.015459805247
105.015445943645
105.015434685833
105.015701947836
105.015717851362
105.015733808395
105.015746141609
105.015754633874
105.01576017245
105.015763678675
105.015765860022
105.015767191639
105.015767988225
105.015768453915
105.015768720317
105.015768869809
105.015768952682
105.015768998521
105.015769024132
105.015769038844
105.015769047634
105.015769053149
105.015769056772
105.015769059173
105.015769060759
105.015769061763
105.015769062258
105.01576906236
105.01576906204
105.015769061341
105.015769060235
105.015769058635
105.015769056408
105.015769053352
105.015769049045
105.015769042744
105.015769033038
105.01576901722
105.015768990226
105.015768942598
105.015768857425
105.015768705038
105.015768435391
105.015767966572
105.015767168035
105.01576583703
105.015763659656
105.015760157446
105.015754608845
105.015746060584
105.015733591936
105.0157174575
105.015701700468
105.01594180071
105.015959620388
105.015975564645
105.015987376668
105.015995292546
105.016000340896
105.016003474462
105.01600539111
105.016006544771
105.016007227197
105.01600762282
105.016007847837
105.016007973813
105.016008043749
105.016008082661
105.016008104649
105.016008117498
105.016008125327
105.016008130333
105.016008133665
105.016008135906
105.01600813742
105.016008138351
105.016008138846
105.016008138904
105.016008138598
105.016008137929
105.016008136838
105.016008135295
105.016008133171
105.01600813026
105.016008126258
105.01600812051
105.016008111852
105.016008098071
105.016008074934
105.01600803461
105.016007962869
105.016007834638
105.016007607002
105.016007208746
105.016006524282
105.01600537014
105.016003454759
105.016000320335
105.015995253765
105.015987267514
105.01597528992
105.015959095355
105.015941236372
105.016140599138
105.016157875099
105.016172088188
105.016182206498
105.016188801688
105.016192910596
105.016195409626
105.016196912213
105.016197804507
105.016198327197
105.016198628407
105.016198799407
105.016198895421
105.016198949161
105.01619897956
105.016198997138
105.016199007718
105.016199014353
105.016199018763
105.016199021746
105.016199023798
105.016199025195
105.016199026082
105.016199026519
105.016199026577
105.016199026271
105.016199025602
105.016199024554
105.016199023084
105.016199021076
105.01619901837
105.016199014732
105.016199009653
105.016199002246
105.016198990867
105.016198972371
105.016198940895
105.016198885816
105.016198788202
105.01619861534
105.016198312165
105.0161977877
105.016196894387
105.016195391276
105.016192888259
105.016188757116
105.016182087085
105.0161717921
105.01615728224
105.016139795451
105.016293931971
105.016308896069
105.016320418377
105.016328316196
105.016333320935
105.016336363944
105.016338175919
105.016339246577
105.016339874026
105.016340238508
105.016340447764
105.016340566799
105.016340634218
105.016340672606
105.01634069487
105.016340708215
105.016340716567
105.016340722053
105.016340725808
105.016340728442
105.01634073029
105.016340731556
105.016340732356
105.016340732749
105.016340732778
105.016340732473
105.016340731832
105.016340730843
105.016340729446
105.016340727569
105.016340725109
105.01634072185
105.016340717455
105.016340711285
105.016340702205
105.016340688104
105.016340664995
105.016340625647
105.016340557137
105.016340436807
105.016340226168
105.016339860362
105.016339231879
105.016338160043
105.016336343178
105.016333278589
105.016328204394
105.016320139068
105.016308311446
105.016293025852
105.0164046352
105.016416438943
105.016425039445
105.016430720803
105.016434218036
105.016436289661
105.016437495346
105.016438194507
105.016438598628
105.016438831575
105.016438965118
105.016439041559
105.016439085506
105.016439111205
105.016439126674
105.016439136394
105.016439142797
105.016439147221
105.016439150349
105.01643915262
105.016439154235
105.016439155355
105.016439156054
105.016439156403
105.016439156432
105.016439156127
105.016439155515
105.01643915457
105.016439153274
105.016439151543
105.016439149331
105.01643914645
105.016439142695
105.016439137646
105.016439130588
105.016439120198
105.016439104045
105.016439077619
105.016439032857
105.016438955558
105.016438821069
105.016438587219
105.016438182283
105.01643748206
105.016436272155
105.016434182806
105.016430628253
105.016424803718
105.016415924183
105.016403761168
105.016479818005
105.016488405221
105.016494367199
105.01649816081
105.016500424623
105.016501726277
105.016502463812
105.016502881874
105.016503119492
105.016503255203
105.016503332969
105.016503377963
105.016503404448
105.016503420542
105.016503430743
105.016503437553
105.016503442312
105.01650344576
105.016503448322
105.016503450228
105.01650345161
105.016503452585
105.016503453182
105.016503453458
105.016503453444
105.016503453153
105.016503452571
105.016503451727
105.016503450519
105.016503448976
105.016503446997
105.016503444509
105.016503441337
105.016503437277
105.016503431907
105.0165034245
105.016503413688
105.016503396982
105.016503369858
105.016503324223
105.016503245788
105.016503109466
105.016502871309
105.016502452592
105.01650171222
105.016500397876
105.016498091398
105.016494186289
105.016487993751
105.016479069178
105.016528050997
105.01653386488
105.016537726726
105.016540086945
105.016541445948
105.016542198326
105.016542609374
105.016542834623
105.016542959231
105.016543029211
105.016543069141
105.016543092584
105.016543106874
105.016543116071
105.016543122343
105.016543126854
105.016543130245
105.016543132864
105.016543134872
105.016543136415
105.016543137564
105.016543138365
105.01654313886
105.016543139078
105.016543139034
105.016543138743
105.016543138205
105.016543137404
105.016543136328
105.01654313496
105.016543133228
105.016543131118
105.016543128528
105.016543125326
105.016543121354
105.01654311626
105.016543109436
105.016543099671
105.016543084843
105.016543060861
105.016543020407
105.01654294999
105.016542825091
105.01654259958
105.016542187019
105.016541426667
105.016540038763
105.016537598785
105.016533562462
105.016527468455
105.016557388488
105.016561076132
105.016563422789
105.016564790683
105.016565542799
105.016565936152
105.016566138132
105.016566241567
105.016566295191
105.016566323757
105.016566339618
105.016566349033
105.016566355145
105.016566359511
105.016566362858
105.016566365593
105.016566367834
105.016566369683
105.016566371181
105.01656637236
105.016566373262
105.016566373903
105.016566374281
105.016566374426
105.016566374354
105.016566374077
105.016566373582
105.016566372855
105.016566371909
105.016566370716
105.016566369246
105.0165663675
105.016566365433
105.016566363018
105.016566360209
105.01656635695
105.016566353035
105.016566348175
105.016566341554
105.016566331658
105.01656631536
105.016566286446
105.016566232633
105.016566129198
105.016565926693
105.016565528975
105.016564759004
105.016563338315
105.016560869597
105.016556970819
105.016574359208
105.016576561204
105.016577900766
105.016578634342
105.016579010146
105.016579186573
105.016579264644
105.0165792966
105.016579308605
105.016579312607
105.016579313844
105.016579314426
105.016579315139
105.016579316085
105.016579317264
105.016579318544
105.016579319796
105.016579320974
105.016579321978
105.016579322808
105.016579323448
105.016579323899
105.016579324176
105.016579324249
105.016579324147
105.01657932387
105.016579323405
105.016579322779
105.016579321949
105.01657932096
105.016579319752
105.01657931837
105.016579316798
105.016579315095
105.016579313291
105.016579311501
105.016579309799
105.016579308329
105.01657930715
105.016579306102
105.016579304487
105.016579300194
105.016579288058
105.016579256233
105.016579178206
105.016578999843
105.016578613955
105.016577847942
105.016576428781
105.016574080102
105.01658371849
105.016584960278
105.016585676931
105.016586033482
105.01658619268
105.016586247686
105.016586257756
105.0165862508
105.016586239988
105.016586230166
105.016586222817
105.016586217927
105.016586215032
105.016586213576
105.016586213082
105.016586213154
105.016586213562
105.016586214086
105.016586214639
105.016586215133
105.016586215526
105.016586215803
105.016586215948
105.016586215948
105.016586215817
105.016586215541
105.016586215133
105.01658621458
105.016586213897
105.016586213067
105.016586212136
105.016586211088
105.016586210011
105.016586208949
105.016586208018
105.016586207435
105.016586207421
105.016586208396
105.016586210841
105.016586215308
105.016586222293
105.016586231854
105.016586242593
105.016586249723
105.016586239959
105.016586184385
105.016586020109
105.016585645018
105.016584879704
105.016583542878
105.01658864718
105.016589309409
105.016589665291
105.016589813124
105.016589856823
105.016589849489
105.016589825478
105.016589799139
105.0165897767
105.016589759529
105.016589747291
105.016589739011
105.016589733685
105.016589730454
105.016589728635
105.016589727718
105.016589727355
105.016589727311
105.016589727427
105.016589727587
105.016589727747
105.016589727835
105.016589727849
105.016589727777
105.016589727617
105.01658972734
105.016589726976
105.016589726511
105.016589725958
105.016589725332
105.016589724648
105.016589723949
105.016589723309
105.016589722843
105.016589722683
105.016589723105
105.016589724444
105.016589727238
105.016589732113
105.016589739986
105.016589751904
105.016589768842
105.016589791208
105.016589817707
105.016589842111
105.016589849576
105.01658980365
105.016589646024
105.016589262115
105.016588542043
105.016591125692
105.016591459105
105.016591618842
105.016591659602
105.016591647218
105.016591611406
105.016591572508
105.016591537817
105.016591510139
105.01659148933
105.016591474399
105.016591464009
105.016591457024
105.016591452455
105.016591449559
105.016591447798
105.016591446765
105.016591446212
105.016591445907
105.016591445761
105.016591445674
105.016591445601
105.016591445499
105.016591445354
105.01659144515
105.016591444888
105.016591444553
105.016591444175
105.016591443753
105.016591443302
105.016591442865
105.016591442502
105.016591442283
105.016591442341
105.01659144288
105.01659144416
105.016591446591
105.016591450723
105.016591457301
105.016591467327
105.016591481952
105.016591502543
105.016591530133
105.016591565
105.016591604246
105.016591640466
105.016591652166
105.016591606647
105.016591431675
105.016591064952
105.016592312488
105.016592469867
105.01659252969
105.016592520595
105.016592484564
105.016592438405
105.016592394837
105.016592357642
105.016592328247
105.01659230591
105.016592289569
105.016592277883
105.016592269734
105.016592264161
105.016592260406
105.016592257918
105.016592256317
105.01659225527
105.0165922546
105.016592254164
105.016592253858
105.016592253611
105.016592253392
105.016592253174
105.016592252941
105.016592252679
105.016592252388
105.016592252097
105.016592251792
105.016592251515
105.016592251312
105.016592251253
105.016592251428
105.016592251981
105.016592253101
105.016592255124
105.016592258427
105.016592263593
105.01659227135
105.016592282685
105.016592298736
105.016592320884
105.016592350221
105.016592387532
105.016592431435
105.016592478059
105.016592514105
105.016592521162
105.016592453481
105.016592277869
105.016592848464
105.016592916829
105.016592929431
105.016592900487
105.016592857311
105.016592809829
105.016592766624
105.016592729895
105.016592700587
105.016592677959
105.016592661006
105.016592648579
105.016592639629
105.016592633285
105.016592628846
105.016592625761
105.016592623637
105.016592622182
105.016592621192
105.016592620479
105.016592619955
105.016592619562
105.016592619228
105.016592618951
105.016592618689
105.016592618427
105.01659261818
105.016592617962
105.016592617772
105.016592617656
105.016592617671
105.016592617889
105.016592618398
105.016592619373
105.016592621032
105.01659262368
105.016592627682
105.016592633619
105.016592642205
105.016592654312
105.016592671003
105.016592693442
105.016592722706
105.016592759508
105.016592802989
105.016592850909
105.016592894361
105.016592922606
105.016592906177
105.016592828266
105.016593070715
105.016593096647
105.016593089182
105.01659305497
105.016593012348
105.016592967615
105.016592927044
105.016592892236
105.016592863976
105.016592841712
105.016592824672
105.016592811851
105.016592802407
105.016592795509
105.016592790533
105.016592786968
105.016592784406
105.016592782573
105.016592781278
105.016592780317
105.016592779619
105.01659277908
105.016592778644
105.016592778295
105.016592777989
105.016592777742
105.016592777538
105.016592777378
105.016592777305
105.016592777349
105.016592777567
105.016592778033
105.016592778862
105.016592780215
105.016592782311
105.016592785454
105.016592790009
105.016592796528
105.016592805623
105.016592818138
105.016592834931
105.016592857035
105.016592885237
105.016592920118
105.016592960892
105.016593006003
105.016593048975
105.016593083084
105.016593088774
105.016593058011
105.016593148364
105.016593155466
105.01659314103
105.016593107983
105.016593069056
105.016593028602
105.016592991567
105.016592959262
105.01659293253
105.016592911066
105.016592894259
105.016592881366
105.016592871616
105.01659286434
105.016592858941
105.016592854983
105.016592852073
105.016592849934
105.016592848377
105.016592847198
105.016592846325
105.016592845655
105.016592845132
105.016592844724
105.016592844404
105.016592844142
105.016592843967
105.01659284388
105.016592843909
105.016592844084
105.016592844477
105.016592845175
105.016592846281
105.016592847955
105.016592850414
105.016592853965
105.016592858956
105.016592865853
105.016592875269
105.016592887871
105.016592904431
105.016592925778
105.016592952437
105.016592984801
105.01659302201
105.016593062755
105.016593102016
105.016593135166
105.016593148815
105.016593139342
105.016593162669
105.016593162218
105.016593146647
105.016593117194
105.016593082895
105.016593047098
105.016593013759
105.016592984175
105.016592959219
105.016592938759
105.016592922446
105.016592909669
105.016592899818
105.016592892309
105.016592886648
105.016592882384
105.016592879183
105.016592876796
105.016592874992
105.016592873639
105.01659287262
105.016592871834
105.016592871223
105.016592870757
105.016592870408
105.016592870161
105.01659287003
105.016592869986
105.016592870117
105.016592870408
105.016592870961
105.016592871834
105.016592873173
105.016592875123
105.016592877888
105.01659288173
105.016592887012
105.016592894171
105.016592903703
105.016592916203
105.016592932297
105.016592952597
105.016592977496
105.016593007123
105.016593040593
105.016593076638
105.016593111199
105.016593140812
105.016593156033
105.016593155335
105.016593150955
105.016593148001
105.016593133652
105.016593108347
105.01659307869
105.01659304733
105.016593017601
105.016592990738
105.016592967659
105.016592948377
105.016592932705
105.016592920219
105.016592910411
105.016592902815
105.016592896965
105.016592892483
105.016592889093
105.016592886488
105.016592884509
105.01659288301
105.016592881846
105.016592880958
105.016592880289
105.016592879765
105.016592879401
105.016592879154
105.016592879037
105.016592879067
105.016592879256
105.016592879663
105.016592880347
105.016592881395
105.016592882923
105.016592885077
105.016592888045
105.01659289212
105.016592897591
105.016592904853
105.01659291434
105.016592926579
105.016592942033
105.016592961168
105.01659298419
105.016593011082
105.016593040898
105.016593072447
105.016593102293
105.016593127773
105.016593141961
105.016593144348
105.016593129665
105.016593126347
105.016593113935
105.016593092587
105.016593067165
105.016593039909
105.016593013555
105.016592989312
105.01659296811
105.01659295008
105.016592935193
105.016592923115
105.016592913496
105.0165929059
105.016592899963
105.01659289535
105.016592891785
105.016592889035
105.016592886925
105.01659288528
105.016592884014
105.016592883054
105.016592882312
105.016592881744
105.016592881366
105.016592881118
105.016592881017
105.016592881089
105.016592881351
105.016592881861
105.016592882646
105.01659288384
105.016592885513
105.016592887827
105.01659289097
105.01659289519
105.016592900763
105.016592908025
105.016592917338
105.016592929154
105.016592943852
105.016592961736
105.016592982865
105.016593007109
105.016593033535
105.016593060951
105.016593086519
105.016593107983
105.016593120308
105.016593123335
105.016593105654
105.016593102759
105.016593092369
105.016593074528
105.016593052875
105.016593029271
105.016593006018
105.016592984262
105.016592964894
105.016592948174
105.01659293416
105.016592922606
105.016592913249
105.016592905769
105.016592899832
105.016592895161
105.016592891508
105.016592888642
105.016592886415
105.016592884669
105.01659288333
105.016592882283
105.016592881482
105.0165928809
105.016592880493
105.016592880245
105.016592880173
105.016592880289
105.016592880609
105.016592881177
105.016592882064
105.016592883345
105.016592885149
105.016592887579
105.016592890839
105.016592895117
105.016592900691
105.01659290785
105.016592916916
105.016592928208
105.016592942033
105.016592958607
105.016592977903
105.016592999644
105.016593022941
105.016593046661
105.016593068416
105.016593086344
105.016593096676
105.016593099397
105.016593081571
105.01659307933
105.016593070817
105.016593056018
105.016593037639
105.016593017295
105.016592996864
105.016592977452
105.016592959873
105.016592944477
105.016592931366
105.016592920409
105.016592911401
105.01659290411
105.016592898261
105.016592893589
105.016592889879
105.016592886954
105.016592884655
105.016592882836
105.016592881424
105.016592880318
105.016592879489
105.016592878863
105.016592878455
105.016592878208
105.01659287815
105.016592878295
105.016592878659
105.016592879299
105.01659288026
105.016592881613
105.01659288349
105.016592885993
105.016592889297
105.016592893589
105.01659289909
105.016592906075
105.016592914777
105.016592925487
105.016592938409
105.01659295366
105.016592971151
105.016592990549
105.016593010994
105.016593031425
105.016593049892
105.01659306472
105.016593073218
105.016593075357
105.016593058317
105.016593056789
105.016593049892
105.016593037726
105.016593022228
105.016593004751
105.016592986896
105.016592969652
105.016592953805
105.016592939704
105.016592927524
105.016592917222
105.016592908651
105.016592901608
105.016592895889
105.016592891276
105.016592887579
105.016592884625
105.016592882283
105.01659288042
105.01659287895
105.016592877815
105.016592876942
105.016592876316
105.01659287588
105.016592875632
105.016592875603
105.016592875763
105.016592876156
105.01659287684
105.016592877844
105.01659287927
105.016592881177
105.016592883723
105.016592887026
105.016592891261
105.016592896645
105.016592903368
105.016592911648
105.016592921718
105.016592933694
105.01659294765
105.016592963409
105.016592980624
105.01659299848
105.016593016015
105.016593031571
105.01659304378
105.016593050619
105.016593052103
105.016593036125
105.016593035252
105.01659302981
105.016593019915
105.01659300692
105.016592992019
105.016592976492
105.01659296127
105.016592947053
105.016592934247
105.016592923028
105.016592913409
105.016592905318
105.016592898581
105.016592893051
105.01659288854
105.016592884887
105.016592881948
105.01659287959
105.016592877699
105.016592876214
105.01659287505
105.016592874148
105.016592873493
105.016592873057
105.016592872824
105.01659287278
105.016592872969
105.016592873391
105.016592874104
105.016592875152
105.016592876593
105.016592878528
105.01659288106
105.01659288432
105.016592888467
105.016592893648
105.016592900065
105.016592907894
105.016592917265
105.016592928296
105.016592940956
105.016592955071
105.016592970249
105.016592985761
105.016593000706
105.016593013745
105.016593023654
105.016593029068
105.016593029926
105.016593014952
105.01659301469
105.016593010514
105.016593002612
105.016592991829
105.016592979213
105.016592965811
105.016592952452
105.016592939806
105.016592928238
105.016592917978
105.016592909073
105.016592901491
105.016592895117
105.016592889806
105.016592885455
105.016592881875
105.016592878979
105.016592876622
105.016592874745
105.016592873246
105.016592872053
105.01659287115
105.016592870496
105.016592870044
105.016592869812
105.016592869782
105.016592869972
105.016592870423
105.016592871136
105.016592872198
105.016592873639
105.016592875574
105.016592878063
105.016592881249
105.016592885251
105.016592890213
105.016592896282
105.016592903587
105.01659291226
105.016592922315
105.016592933738
105.016592946282
105.016592959582
105.01659297297
105.016592985601
105.016592996413
105.016593004344
105.016593008506
105.016593008768
105.016592994652
105.016592994987
105.01659299196
105.016592985819
105.016592977001
105.016592966451
105.016592954969
105.016592943357
105.016592932181
105.01659292182
105.016592912507
105.016592904329
105.016592897286
105.01659289129
105.016592886255
105.016592882079
105.016592878615
105.016592875778
105.016592873479
105.016592871601
105.016592870103
105.016592868924
105.016592868022
105.016592867338
105.016592866901
105.016592866668
105.016592866639
105.016592866843
105.01659286728
105.016592868007
105.016592869069
105.016592870496
105.016592872387
105.016592874817
105.016592877888
105.016592881715
105.016592886415
105.016592892105
105.016592898872
105.016592906817
105.016592915941
105.016592926142
105.016592937216
105.01659294877
105.016592960223
105.016592970773
105.016592979606
105.016592985776
105.016592988803
105.016592988497
105.016592975109
105.016592976026
105.016592974047
105.016592969492
105.016592962449
105.016592953762
105.016592944055
105.016592934044
105.01659292425
105.016592915053
105.016592906672
105.016592899221
105.016592892731
105.016592887143
105.016592882414
105.016592878441
105.016592875123
105.016592872387
105.016592870132
105.016592868298
105.016592866814
105.016592865635
105.016592864733
105.016592864064
105.016592863612
105.01659286338
105.016592863351
105.016592863554
105.016592864005
105.016592864718
105.016592865766
105.016592867163
105.016592868997
105.01659287134
105.016592874264
105.016592877888
105.016592882283
105.016592887565
105.016592893793
105.016592901011
105.016592909189
105.016592918226
105.016592927917
105.016592937856
105.016592947533
105.016592956221
105.016592963293
105.016592967862
105.016592969856
105.016592968983
105.016592956177
105.016592957705
105.016592956687
105.016592953602
105.016592948174
105.016592941189
105.016592933098
105.016592924585
105.016592916087
105.016592907996
105.016592900516
105.016592893793
105.016592887856
105.016592882705
105.016592878295
105.016592874555
105.016592871398
105.016592868778
105.016592866596
105.016592864806
105.016592863365
105.016592862201
105.016592861313
105.016592860644
105.016592860207
105.01659285996
105.016592859945
105.016592860135
105.016592860571
105.01659286127
105.016592862274
105.016592863627
105.016592865388
105.016592867614
105.016592870394
105.016592873784
105.016592877859
105.016592882705
105.01659288838
105.01659289487
105.016592902146
105.016592910077
105.016592918459
105.016592926899
105.016592934946
105.016592941945
105.016592947402
105.016592950516
105.01659295155
105.016592950094
105.01659293774
105.016592939908
105.016592939835
105.016592938118
105.01659293416
105.016592928747
105.01659292214
105.01659291501
105.016592907748
105.016592900705
105.016592894113
105.016592888103
105.016592882734
105.016592878019
105.01659287393
105.016592870437
105.016592867469
105.016592864966
105.016592862885
105.016592861168
105.016592859756
105.016592858636
105.016592857748
105.016592857093
105.016592856657
105.016592856409
105.01659285638
105.016592856569
105.016592856991
105.016592857661
105.016592858636
105.016592859916
105.01659286159
105.016592863685
105.016592866275
105.016592869419
105.016592873173
105.016592877582
105.01659288269
105.016592888453
105.016592894855
105.016592901738
105.016592908883
105.016592915941
105.016592922504
105.016592927932
105.016592931919
105.01659293368
105.016592933796
105.016592931715
105.016592919696
105.016592922562
105.016592923421
105.016592922999
105.016592920423
105.01659291645
105.016592911212
105.016592905376
105.016592899265
105.016592893211
105.016592887463
105.016592882152
105.016592877335
105.016592873071
105.016592869331
105.016592866101
105.016592863336
105.016592860979
105.016592859
105.016592857355
105.016592856002
105.01659285491
105.016592854037
105.016592853397
105.01659285296
105.016592852728
105.016592852699
105.016592852859
105.016592853266
105.016592853892
105.016592854809
105.016592856031
105.016592857588
105.016592859538
105.016592861939
105.01659286482
105.016592868225
105.016592872198
105.016592876738
105.016592881817
105.016592887376
105.016592893255
105.01659289925
105.016592905013
105.016592910193
105.01659291418
105.0165929168
105.016592917265
105.01659291648
105.016592913729
105.016592901986
105.016592905638
105.016592907414
105.016592908287
105.016592906992
105.016592904343
105.016592900385
105.016592895743
105.016592890694
105.0165928856
105.016592880653
105.016592876025
105.016592871776
105.016592867949
105.016592864558
105.01659286159
105.016592859029
105.016592856831
105.016592854969
105.016592853412
105.016592852116
105.016592851054
105.016592850225
105.016592849599
105.016592849162
105.01659284893
105.016592848886
105.016592849046
105.01659284941
105.016592850006
105.016592850865
105.016592852
105.016592853441
105.016592855245
105.016592857428
105.016592860033
105.016592863103
105.016592866625
105.016592870612
105.016592875007
105.016592879751
105.016592884684
105.016592889602
105.016592894157
105.016592898086
105.016592900734
105.016592902059
105.016592901273
105.016592899585
105.016592896078
105.016592884494
105.016592889049
105.016592891785
105.016592893895
105.016592893822
105.01659289244
105.016592889646
105.01659288611
105.016592882079
105.016592877873
105.016592873697
105.01659286971
105.016592865999
105.016592862623
105.016592859582
105.016592856904
105.016592854547
105.016592852524
105.016592850778
105.016592849308
105.016592848071
105.016592847067
105.016592846267
105.016592845655
105.016592845233
105.016592845001
105.016592844942
105.016592845088
105.016592845423
105.016592845961
105.016592846747
105.016592847795
105.016592849119
105.016592850749
105.016592852728
105.016592855056
105.016592857763
105.016592860848
105.016592864296
105.016592868036
105.016592872009
105.01659287604
105.016592879954
105.016592883403
105.016592886153
105.01659288755
105.016592887667
105.016592885644
105.016592883025
105.016592878659
105.016592867207
105.016592872795
105.01659287652
105.016592879882
105.016592880973
105.016592880755
105.016592879052
105.016592876549
105.01659287345
105.016592870088
105.016592866639
105.016592863292
105.016592860105
105.016592857151
105.016592854474
105.016592852058
105.016592849934
105.016592848071
105.016592846456
105.016592845088
105.016592843924
105.016592842963
105.016592842192
105.01659284161
105.016592841203
105.016592840955
105.016592840897
105.016592840999
105.016592841304
105.016592841799
105.016592842512
105.016592843458
105.016592844651
105.016592846107
105.016592847867
105.016592849919
105.016592852277