/*--------------------------------*- C++ -*----------------------------------*\
  =========                 |
  \\      /  F ield         | OpenFOAM: The Open Source CFD Toolbox
   \\    /   O peration     | Website:  https://openfoam.org
    \\  /    A nd           | Version:  10
     \\/     M anipulation  |
\*---------------------------------------------------------------------------*/
FoamFile
{
    format      ascii;
    class       surfaceScalarField;
    location    "9.4";
    object      phi;
}
// * * * * * * * * * * * * * * * * * * * * * * * * * * * * * * * * * * * * * //

dimensions      [1 0 -1 0 0 0 0];

internalField   nonuniform List<scalar> 
4900
(
-4.83800790555225e-12
4.85272042750054e-12
-7.72283787487171e-12
2.90782469036052e-12
-7.91531796605499e-12
2.17009511347544e-13
-6.57742984746337e-12
-1.31401927715105e-12
-4.9196390052748e-12
-1.63438022635797e-12
-3.49282726968402e-12
-1.40352738318624e-12
-2.42452343005182e-12
-1.04505399734802e-12
-1.67032473487935e-12
-7.31028000699594e-13
-1.15146832901224e-12
-4.95849144367341e-13
-7.97659453540095e-13
-3.31045953592567e-13
-5.56488353553262e-13
-2.18711599308083e-13
-3.91047029320693e-13
-1.4332305097035e-13
-2.76190828504136e-13
-9.30949435310481e-14
-1.95070455274579e-13
-5.97181016561575e-14
-1.36554465679177e-13
-3.74616579569676e-14
-9.33460843415844e-14
-2.24855403000784e-14
-6.0678117654054e-14
-1.22541111267045e-14
-3.53964564571116e-14
-5.15414976328842e-15
-1.53848354176228e-14
-1.45144382230114e-16
7.95618656565633e-16
3.44904461080098e-15
1.41736612886667e-14
6.03896865820704e-15
2.55038999610722e-14
7.8965355021064e-15
3.53722424594542e-14
9.19125070659177e-15
4.4247718738234e-14
1.00375714993151e-14
5.25548849535624e-14
1.04795924319315e-14
6.06718079916399e-14
1.05620412996641e-14
6.8987282396502e-14
1.02734926558266e-14
7.7914027133497e-14
9.58833461361183e-15
8.79255433598914e-14
8.44556006836273e-15
9.96051851910429e-14
6.73425900552375e-15
1.13706477228318e-13
4.28392256743338e-15
1.3124444449181e-13
8.33312112004634e-16
1.53668701063667e-13
-4.05213160747247e-15
1.83084288862533e-13
-1.10269310330798e-14
2.22657809738204e-13
-2.1152583120155e-14
2.7717878118261e-13
-3.60519074511068e-14
3.53951471401978e-13
-5.8241853072668e-14
4.64094899128615e-13
-9.15397212779579e-14
6.24416614256878e-13
-1.41639927916408e-13
8.60048246327101e-13
-2.16873734618661e-13
1.20792298873861e-12
-3.29052312022178e-13
1.72069687704566e-12
-4.93905997423264e-13
2.46970087264367e-12
-7.30110413028992e-13
3.53638653661879e-12
-1.04776482725675e-12
4.97023498595583e-12
-1.41483445457492e-12
6.64853880456597e-12
-1.65900123612967e-12
8.01302962097924e-12
-1.34454526691257e-12
7.81823552485372e-12
2.1583830331329e-13
4.87572281284807e-12
2.96412951493483e-12
4.89106425875007e-12
-8.20390706774218e-12
1.3077541603381e-11
-1.4189857530828e-11
8.92439291919412e-12
-1.50039326837876e-11
1.06332160151276e-12
-1.27903321267966e-11
-3.49616421613037e-12
-9.76935182284168e-12
-4.62449061028215e-12
-7.07088480856165e-12
-4.07135676369083e-12
-4.99816282281252e-12
-3.08727026002244e-12
-3.50882037617679e-12
-2.19004380440479e-12
-2.46786924486872e-12
-1.50673984719853e-12
-1.74691870516324e-12
-1.02228530810162e-12
-1.24663865143029e-12
-6.8968804074061e-13
-8.96310566403545e-13
-4.64790003712235e-13
-6.47319764800597e-13
-3.1367889004917e-13
-4.6693910279114e-13
-2.12142772466803e-13
-3.33375309551345e-13
-1.43503985251388e-13
-2.32194372588449e-13
-9.65571582840875e-14
-1.53809401946157e-13
-6.39129864377288e-14
-9.17777621751025e-14
-4.08139047137553e-14
-4.16912904639967e-14
-2.41827228703076e-14
-4.52408549660795e-16
-1.20339961898056e-14
3.41936331751846e-14
-3.11316145266028e-15
6.39418751119392e-14
3.40801763342547e-15
9.01468247215479e-14
8.03999573488999e-15
1.1392342745757e-13
1.11349428352776e-14
1.36266058180832e-13
1.28557010466153e-14
1.58098219848822e-13
1.33167756340351e-14
1.80348525721316e-13
1.25005696700376e-14
2.03998135171076e-13
1.03267515117095e-14
2.30167380029813e-13
6.59414361568619e-15
2.60189686984895e-13
9.78569889529791e-16
2.95763095846808e-13
-7.05582743010577e-15
3.39118380586591e-13
-1.8302764019097e-14
3.93344835934232e-13
-3.40548402528318e-14
4.62842562838503e-13
-5.62769568263812e-14
5.54071197335617e-13
-8.80895105925086e-14
6.76643991961536e-13
-1.34269615679144e-13
8.45013654411555e-13
-2.02174957869137e-13
1.08096633758912e-12
-3.02960964279018e-13
1.41721156125522e-12
-4.53252606024388e-13
1.90238749877727e-12
-6.77317709109537e-13
2.60736564978685e-12
-1.0092122679948e-12
3.63216129983867e-12
-1.49381818423931e-12
5.10735665915314e-12
-2.18037489403961e-12
7.17333288557778e-12
-3.0887477718774e-12
9.88237346129445e-12
-4.09870778840117e-12
1.29403032959275e-11
-4.69129852769018e-12
1.5204205692528e-11
-3.58186617728298e-12
1.43896083011627e-11
1.05833437804468e-12
8.30000207002022e-12
9.08133017863158e-12
1.32094414231996e-11
-7.6258057911869e-12
2.07265828363834e-11
-1.42495341917639e-11
1.5581111191575e-11
-1.55664484898049e-11
2.41458224160417e-12
-1.36461679042561e-11
-5.38296896885964e-12
-1.06974333269885e-11
-7.5404696892669e-12
-7.94653675497687e-12
-6.78988998000028e-12
-5.76721769201331e-12
-5.23450338933531e-12
-4.16096105051254e-12
-3.76450811900227e-12
-3.01053211303937e-12
-2.62572500529861e-12
-2.19357828026401e-12
-1.80819773074627e-12
-1.61126664107116e-12
-1.2413964327829e-12
-1.19169463895685e-12
-8.54215763432193e-13
-8.84548842071267e-13
-5.91137217889065e-13
-6.55412673257851e-13
-4.12040769280441e-13
-4.80947301495449e-13
-2.89160294889461e-13
-3.45355163153107e-13
-2.03745710375363e-13
-2.37875822746762e-13
-1.43365371375308e-13
-1.51078431202825e-13
-9.99318128903151e-14
-7.97314027591511e-14
-6.81668173585866e-14
-2.00440465826199e-14
-4.46455165652389e-14
3.08152236361848e-14
-2.7154249404413e-14
7.50444005248585e-14
-1.42320710010434e-14
1.14426978328836e-13
-4.95515623502819e-15
1.50472154654451e-13
1.30083539555082e-15
1.84524831203657e-13
4.86254458534427e-15
2.17861915337493e-13
5.91059135913548e-15
2.51751450117299e-13
4.43481153931268e-15
2.87535282629685e-13
2.79579912403345e-16
3.26715014455106e-13
-6.91624814346783e-15
3.71053732802912e-13
-1.77404260991685e-14
4.22734691617451e-13
-3.31481536328046e-14
4.84570022202912e-13
-5.45626145868709e-14
5.60323602251698e-13
-8.42273386093356e-14
6.55220398886044e-13
-1.25567003367618e-13
7.76690957131368e-13
-1.83907879338182e-13
9.35517837837265e-13
-2.673787767847e-13
1.14751337109787e-12
-3.88369240066083e-13
1.43603364676814e-12
-5.65581229955208e-13
1.83552484348083e-12
-8.26735164580941e-13
2.39639354324888e-12
-1.21206689645056e-12
3.19083653959341e-12
-1.7774322965949e-12
4.31859011949754e-12
-2.59525827752722e-12
5.90448424387569e-12
-3.73987429888998e-12
8.07163225716658e-12
-5.22939364792974e-12
1.08293817204597e-11
-6.8297201520309e-12
1.38147726131127e-11
-7.64939548320434e-12
1.57911160885247e-11
-5.52984147723269e-12
1.44854896713044e-11
2.39360212428971e-12
7.75836470463301e-12
1.5837299148796e-11
2.09866435880227e-11
-5.24430178449861e-12
2.59960401207697e-11
-1.07487884775411e-11
2.11207185251385e-11
-1.23465589191545e-11
4.04867845208194e-12
-1.13120117512733e-11
-6.38218204431849e-12
-9.24846415361915e-12
-9.56956927039935e-12
-7.16209881775461e-12
-8.84237584476882e-12
-5.41616573038837e-12
-6.94698627957352e-12
-4.06899020990543e-12
-5.07864093096581e-12
-3.0619741049567e-12
-3.6001228890964e-12
-2.31654572454142e-12
-2.52145467257614e-12
-1.7630659795037e-12
-1.7631635697209e-12
-1.34813998056289e-12
-1.23789102670815e-12
-1.03280715360648e-12
-8.75672418156069e-13
-7.89377215831893e-13
-6.25110817787935e-13
-5.98331583954379e-13
-4.5026171452192e-13
-4.45915323957858e-13
-3.26609115812925e-13
-3.22363312358213e-13
-2.37727364112062e-13
-2.20657489590655e-13
-1.72782988053052e-13
-1.35651400157325e-13
-1.24623108008625e-13
-6.34777971965466e-14
-8.85464804053265e-14
-1.15480622598753e-15
-6.14524144847299e-14
5.37062841245238e-14
-4.12897112216214e-14
1.03075126877158e-13
-2.67148875917342e-14
1.48661777874295e-13
-1.68465475772469e-14
1.92002512762595e-13
-1.11848149901872e-14
2.34563351245297e-13
-9.4806230568833e-15
2.7780332668955e-13
-1.17382380639149e-14
3.23254975816068e-13
-1.81886782807397e-14
3.72609633750471e-13
-2.93520898584261e-14
4.2782504085893e-13
-4.60843668894503e-14
4.9126124578884e-13
-6.97426180810885e-14
5.65880596177035e-13
-1.02352224778724e-13
6.5551304180786e-13
-1.47023882537854e-13
7.65290671189088e-13
-2.08483238016286e-13
9.02220918368937e-13
-2.93931897749336e-13
1.076068192105e-12
-4.14254701431467e-13
1.30059116084889e-12
-5.85836517363004e-13
1.59533561655262e-12
-8.33168971657483e-13
1.98805234127232e-12
-1.19218129288833e-12
2.51784184328895e-12
-1.71446403613185e-12
3.23844031980397e-12
-2.47051643561705e-12
4.22034840038362e-12
-3.54953644507952e-12
5.54426766770303e-12
-5.0360499377164e-12
7.27373871155481e-12
-6.93097869963249e-12
9.35987920900428e-12
-8.88770330122576e-12
1.14504146745616e-11
-9.71117334060468e-12
1.25352262648723e-11
-6.58476167603387e-12
1.09626984194225e-11
3.99725698542689e-12
5.38190878302315e-12
2.14480773601061e-11
2.63879645615495e-11
-2.43404941518337e-12
2.8456714470457e-11
-6.04836545829693e-12
2.47716652624183e-11
-7.71886448973726e-12
5.756667674024e-12
-7.70179112048127e-12
-6.36288074517369e-12
-6.78999749264052e-12
-1.04460291210019e-11
-5.63114160040852e-12
-9.96663278857432e-12
-4.53163200056719e-12
-8.01246460077283e-12
-3.6005916991557e-12
-5.97615516008979e-12
-2.84846392078864e-12
-4.31920997828655e-12
-2.25274415368104e-12
-3.08461082549256e-12
-1.78324314573416e-12
-2.20056919680422e-12
-1.41242167721806e-12
-1.57707341950022e-12
-1.11766699396708e-12
-1.13922771930955e-12
-8.81335830034166e-13
-8.30663046771028e-13
-6.89935444339846e-13
-6.11280295288564e-13
-5.3323639888997e-13
-4.53299437083483e-13
-4.03473359823714e-13
-3.37827407644986e-13
-2.94729031089872e-13
-2.52183482330565e-13
-2.02436440966773e-13
-1.87863008595843e-13
-1.23007783545826e-13
-1.3918663531472e-13
-5.3576239551236e-14
-1.02332462875543e-13
8.22710786079694e-15
-7.47528384473644e-14
6.44016984362545e-14
-5.47350358071129e-14
1.16712366930917e-13
-4.1165029410873e-14
1.66767908909793e-13
-3.33871333800005e-14
2.16104636738057e-13
-3.10821184764489e-14
2.66254682147787e-13
-3.42510996131255e-14
3.18818696964859e-13
-4.31950020576085e-14
3.75544018684487e-13
-5.85812789388728e-14
4.38412543909616e-13
-8.1501590678995e-14
5.09759068238766e-13
-1.13666046789003e-13
5.92431601794603e-13
-1.5761288958076e-13
6.89981402992402e-13
-2.17155846073695e-13
8.06942422091014e-13
-2.98002320125474e-13
9.49210572744628e-13
-4.08714856086668e-13
1.12452452897733e-12
-5.62020030849441e-13
1.34310519092588e-12
-7.76786450802954e-13
1.61845587790973e-12
-1.08078771316465e-12
1.96826782182053e-12
-1.51414410203163e-12
2.41527481786477e-12
-2.13349266401262e-12
2.98730104772132e-12
-3.0144287242121e-12
3.71513485327815e-12
-4.24912051901827e-12
4.62267996866296e-12
-5.91521022839726e-12
5.70283816595931e-12
-7.98259104753301e-12
6.85347940224819e-12
-1.00095202166266e-11
7.77828928212516e-12
-1.06065615349914e-11
7.8325260460421e-12
-6.60845063059635e-12
6.19674817519461e-12
5.66471910436284e-12
2.54551777079192e-12
2.51296022114826e-11
2.89527375887379e-11
-4.04474436075471e-14
2.85249256221057e-11
-1.73457739396903e-12
2.6503382632396e-11
-3.30942284843406e-12
7.36970189617006e-12
-4.13274932678138e-12
-5.5026155752034e-12
-4.25932720779997e-12
-1.02837053988308e-11
-3.97416548304063e-12
-1.0216935870827e-11
-3.50720667059234e-12
-8.44525456021398e-12
-2.99907703716928e-12
-6.45070573593199e-12
-2.51751417966934e-12
-4.76772797161148e-12
-2.0898053140391e-12
-3.47977464656351e-12
-1.72224287486448e-12
-2.53605776955287e-12
-1.41184514189306e-12
-1.85584486785886e-12
-1.1519068162913e-12
-1.36796363680924e-12
-9.34815428137983e-13
-1.01695388503017e-12
-7.53282111480202e-13
-7.62390741084038e-13
-6.00855301209588e-13
-5.7565725945128e-13
-4.72046469900629e-13
-4.3689591979245e-13
-3.62286783357321e-13
-3.32506377547539e-13
-2.67806895123727e-13
-2.5318337615274e-13
-1.85484782259831e-13
-1.92601139683738e-13
-1.12716777613688e-13
-1.46418606442846e-13
-4.72862368181663e-14
-1.11703079167357e-13
1.27264467293611e-14
-8.64444745252758e-14
6.90444360882342e-14
-6.93341344491835e-14
1.23255894477514e-13
-5.95823156791881e-14
1.76889533734807e-13
-5.68118700864695e-14
2.31463360464508e-13
-6.10143661630026e-14
2.88559896102605e-13
-7.25558723583106e-14
3.49878153613932e-13
-9.22226544989046e-14
4.17324761418886e-13
-1.21313944220437e-13
4.93079359793998e-13
-1.61812877792293e-13
5.79720419167619e-13
-2.16657022205253e-13
6.8032788293313e-13
-2.9016105647983e-13
7.98637690512693e-13
-3.88686874638254e-13
9.39177565350561e-13
-5.21588426706884e-13
1.10738932063809e-12
-7.02505196877258e-13
1.3096914660198e-12
-9.51281929758599e-13
1.55335200563063e-12
-1.29654135734164e-12
1.84599646194256e-12
-1.77876285653675e-12
2.19437250227341e-12
-2.45370816539603e-12
2.60158672231599e-12
-3.39333569245098e-12
3.06156891392003e-12
-4.68064430904384e-12
3.54758921241083e-12
-6.37261974410717e-12
3.99354726079221e-12
-8.39976711950378e-12
4.26318554924176e-12
-1.0250103104875e-11
4.1351226330183e-12
-1.04488692934703e-11
3.33260251584482e-12
-5.77521191911126e-12
1.79509811262914e-12
7.23399808961047e-12
1.04654615137128e-13
2.68501878876768e-11
2.90763753909764e-11
1.57713615860941e-12
2.69757862459277e-11
1.41070923179213e-12
2.67069746087179e-11
4.72458187959433e-14
8.77043762708968e-12
-1.30018161302638e-12
-4.11926110369468e-12
-2.16176113508995e-12
-9.38748749777936e-12
-2.53268227318318e-12
-9.81237112623401e-12
-2.56440609126034e-12
-8.38066369791576e-12
-2.40509810836948e-12
-6.57779027714228e-12
-2.15730118541894e-12
-4.98386142272661e-12
-1.88230833743563e-12
-3.72360875348381e-12
-1.61305637835266e-12
-2.77461363212509e-12
-1.3653270467523e-12
-2.07330825793637e-12
-1.14506367505134e-12
-1.55836432582195e-12
-9.52924800077899e-13
-1.17960930503078e-12
-7.86946693227613e-13
-8.99240920676726e-13
-6.4406596241352e-13
-6.89743917375185e-13
-5.20937766704061e-13
-5.31539975169105e-13
-4.14341816948032e-13
-4.1090493800695e-13
-3.21359588950585e-13
-3.18230481051155e-13
-2.39406487882956e-13
-2.46857545330206e-13
-1.66222958241584e-13
-1.92119679428852e-13
-9.98193557856631e-14
-1.50815040094639e-13
-3.84190774737454e-14
-1.20721052797327e-13
1.95952862490186e-14
-1.00371560340179e-13
7.57341380354167e-14
-8.88696463304281e-14
1.31456787679752e-13
-8.57891987967969e-14
1.88216393920186e-13
-9.11170375838187e-14
2.47517362107074e-13
-1.05270613318994e-13
3.10954228066387e-13
-1.29128747358554e-13
3.80282732414509e-13
-1.64152025105341e-13
4.57455155815283e-13
-2.12520052339542e-13
5.44706266437625e-13
-2.77453486330987e-13
6.44572457617063e-13
-3.63567740658797e-13
7.59936747182793e-13
-4.77570628920426e-13
8.9395770839139e-13
-6.29090587836839e-13
1.0499214429933e-12
-8.31893809708347e-13
1.23083505863098e-12
-1.10554410883574e-12
1.43860294574789e-12
-1.4775612013824e-12
1.67252544005346e-12
-1.98582052847349e-12
1.92660076083315e-12
-2.68078272411937e-12
2.18498180853554e-12
-3.62456589681609e-12
2.41456788896611e-12
-4.88292247746649e-12
2.5538544141882e-12
-6.48444191644481e-12
2.50050133952395e-12
-8.31878197920846e-12
2.10850357425621e-12
-9.83022194667497e-12
1.23322738993852e-12
-9.5451794419374e-12
-1.08978845909452e-13
-4.40356346869509e-12
-1.43791081789311e-12
8.59329116364444e-12
-1.56633166985239e-12
2.70072150935026e-11
2.75276529266647e-11
2.41599215446334e-12
2.45872884077561e-11
3.24009681155705e-12
2.59186005720951e-11
2.14805556199305e-12
9.89798925684122e-12
5.9548783652898e-13
-2.5326033742992e-12
-6.63761157978297e-13
-8.09550147384344e-12
-1.43386787184862e-12
-9.01059285586717e-12
-1.79589576148278e-12
-7.98779476964068e-12
-1.88466793178505e-12
-6.45885151671841e-12
-1.81430596070613e-12
-5.02462745831189e-12
-1.66269705292605e-12
-3.84612102792853e-12
-1.47800738180431e-12
-2.93065446466683e-12
-1.28779575127308e-12
-2.23528184139834e-12
-1.10655900333805e-12
-1.71174390773272e-12
-9.40915313320773e-13
-1.31775283517066e-12
-7.92968345227513e-13
-1.0200227015237e-12
-6.62394293655284e-13
-7.93467324708841e-13
-5.47676119543525e-13
-6.19699670833765e-13
-4.46816124521983e-13
-4.85477859543184e-13
-3.57703635257368e-13
-3.81303916425994e-13
-2.78308358055709e-13
-3.00440237995666e-13
-2.06736735206334e-13
-2.38081468330859e-13
-1.41256242062546e-13
-1.90867382783352e-13
-8.02793817099323e-14
-1.5642872026701e-13
-2.23269237876019e-14
-1.33193505381096e-13
3.4002694120846e-14
-1.20187784263826e-13
9.00652557124587e-14
-1.16940737507629e-13
1.47216268560433e-13
-1.23439955904983e-13
2.068423721741e-13
-1.40136188834826e-13
2.7040187831331e-13
-1.67979617911273e-13
3.39459472228695e-13
-2.08538504279921e-13
4.15715783139189e-13
-2.64129046758562e-13
5.01027060384569e-13
-3.38127721030832e-13
5.97380705158888e-13
-4.3528016039075e-13
7.06839424229348e-13
-5.62369121056396e-13
8.31335861206217e-13
-7.28891858144329e-13
9.72310698789082e-13
-9.4812080686023e-13
1.13001641388571e-12
-1.23843074050193e-12
1.30225480805419e-12
-1.62488874844384e-12
1.48231132625775e-12
-2.14085370231325e-12
1.65553932499815e-12
-2.82885401360873e-12
1.79413381803916e-12
-3.73785470958525e-12
1.84946556282957e-12
-4.91279088326574e-12
1.74288769702226e-12
-6.35224634749418e-12
1.35949852884497e-12
-7.90961705371251e-12
5.6511655072387e-13
-9.0098374527166e-12
-7.16026483836762e-13
-8.23754814560532e-12
-2.27512568982392e-12
-2.81701626919118e-12
-3.33779815308309e-12
9.68425700869835e-12
-2.45145072137555e-12
2.61473099981818e-11
2.50923048394406e-11
2.65476752440762e-12
2.19582113242964e-11
3.977105069952e-12
2.46288152212943e-11
3.16798764308865e-12
1.0738962494455e-11
1.65410689255573e-12
-9.88270312266844e-13
2.75225173991424e-13
-6.68749290998357e-12
-6.73061843728244e-13
-8.03424583872375e-12
-1.21438651973564e-12
-7.4192434272659e-12
-1.45682640573601e-12
-6.18985240445707e-12
-1.50819801478065e-12
-4.94724953038092e-12
-1.44871764567723e-12
-3.88007065446201e-12
-1.33199036189074e-12
-3.02227177820163e-12
-1.19117587058143e-12
-2.35136926684364e-12
-1.04557924410994e-12
-1.8329671292038e-12
-9.05584731499941e-13
-1.43370718473333e-12
-7.76119666635336e-13
-1.12575909968978e-12
-6.58915898229944e-13
-8.87236208198818e-13
-5.53921850413396e-13
-7.01532953756527e-13
-4.60182977255073e-13
-5.56310489530526e-13
-3.76317296856196e-13
-4.42497360008119e-13
-3.00811503656579e-13
-3.53486869262509e-13
-2.32139330851721e-13
-2.84486285394672e-13
-1.68838799801522e-13
-2.32071288101187e-13
-1.09519436555458e-13
-1.93801578717081e-13
-5.28555088760722e-14
-1.6804177040429e-13
2.41815833099556e-15
-1.53757626789012e-13
5.75422188906612e-14
-1.50455709973622e-13
1.13752585569071e-13
-1.58118568729725e-13
1.72304967507147e-13
-1.77219826157258e-13
2.34504607490404e-13
-2.0875911971447e-13
3.01711314843933e-13
-2.54360088428098e-13
3.75362781166057e-13
-3.16418039203468e-13
4.56936825699453e-13
-3.98348938750239e-13
5.47909464552237e-13
-5.04896741388057e-13
6.49602635303412e-13
-6.42689168270953e-13
7.6290860781519e-13
-8.20793283491148e-13
8.877900246366e-13
-1.05155019594719e-12
1.02242672166055e-12
-1.35155078586801e-12
1.16177775296301e-12
-1.742639192065e-12
1.29531444811986e-12
-2.25268549866339e-12
1.40351920589622e-12
-2.91523003398523e-12
1.45286177422587e-12
-3.76522883780866e-12
1.38909007894644e-12
-4.82690516624672e-12
1.13092969332662e-12
-6.07183196244451e-12
5.69305589409415e-13
-7.32560447672402e-12
-4.04027636722788e-13
-8.01392577510069e-12
-1.80850533027601e-12
-6.81006421379609e-12
-3.33540624710198e-12
-1.26622645322577e-12
-4.11988060987526e-12
1.04933355750968e-11
-2.72172289700216e-12
2.47719929625154e-11
2.23840743966412e-11
2.51588582139147e-12
1.94654491654118e-11
3.97741525431189e-12
2.3195805000734e-11
3.42791817915473e-12
1.13160640140053e-11
2.09864761249823e-12
3.67252651887196e-13
7.85206457955679e-13
-5.34906051661331e-12
-1.85357231031421e-13
-7.03971883400006e-12
-7.93771912130253e-13
-6.78767039533432e-12
-1.11616969265196e-12
-5.84493431679779e-12
-1.24346493299878e-12
-4.79795617644658e-12
-1.24884305771449e-12
-3.85313822152916e-12
-1.18446444731278e-12
-3.06548688609796e-12
-1.08450112726584e-12
-2.4305234701623e-12
-9.70162752568216e-13
-1.92682453439914e-12
-8.53827143434878e-13
-1.52987006664489e-12
-7.42193046722374e-13
-1.21751123298193e-12
-6.38428955784928e-13
-9.71393391877119e-13
-5.43608543363541e-13
-7.77003054749151e-13
-4.57627748585665e-13
-6.23181147548847e-13
-3.7973516088876e-13
-5.0149976350729e-13
-3.0888653346118e-13
-4.0564700690784e-13
-2.43902033094271e-13
-3.30962762223916e-13
-1.83579462895437e-13
-2.74047314567125e-13
-1.26728726932541e-13
-2.32447205459392e-13
-7.21880957793398e-14
-2.04500482598698e-13
-1.88299978478991e-14
-1.89139049464214e-13
3.44602795974825e-14
-1.85857765851278e-13
8.8791285656934e-14
-1.9463433203154e-13
1.45281844087782e-13
-2.15953721141212e-13
2.05075593275378e-13
-2.5084130273695e-13
2.69327714903239e-13
-3.00933553019512e-13
3.39216687991975e-13
-3.68649062253183e-13
4.1587008907533e-13
-4.57353397245303e-13
5.00299939056641e-13
-5.71675089289903e-13
5.93188912143048e-13
-7.17911451590429e-13
6.94576601041923e-13
-9.04486551017611e-13
8.03301482467538e-13
-1.14253837526708e-12
9.16089288395606e-13
-1.44654408205672e-12
1.02612269031626e-12
-1.83480270643309e-12
1.12084826894982e-12
-2.32944732458188e-12
1.17880538931311e-12
-2.9551119028939e-12
1.16539000154793e-12
-3.73361269355558e-12
1.02773805577745e-12
-4.6709229684855e-12
6.91537887733377e-13
-5.71718139717188e-12
6.45444129848574e-14
-6.68005030578542e-12
-9.29777062683246e-13
-7.00088927066574e-12
-2.26859590421868e-12
-5.4521560747269e-12
-3.61237009794251e-12
9.74369722214061e-14
-4.14008810693858e-12
1.10416129005541e-11
-2.59827802415879e-12
2.32490804338979e-11
1.97967803029749e-11
2.18862723912333e-12
1.72962501257328e-11
3.57477960860924e-12
2.18327834283484e-11
3.24191013744187e-12
1.16708726287734e-11
2.15792487906999e-12
1.47198558510098e-12
1.00786873099837e-12
-4.17936265371947e-12
1.06998563380661e-13
-6.12013092801547e-12
-4.96457978984135e-13
-6.16622559250583e-12
-8.47961887619162e-13
-5.47601854525805e-12
-1.01741263598013e-12
-4.61156237021922e-12
-1.06621172564693e-12
-3.7877944749858e-12
-1.04103629886887e-12
-3.07446848938165e-12
-9.74136462902299e-13
-2.48155011813162e-12
-8.86624851845175e-13
-1.99876179357244e-12
-7.91568794050633e-13
-1.60963484364298e-12
-6.96610609472614e-13
-1.29744663509001e-12
-6.0585776306745e-13
-1.04737841488748e-12
-5.21201796359877e-13
-8.47130876783351e-13
-4.4320348883444e-13
-6.86875362509938e-13
-3.71646076950431e-13
-5.58959126960278e-13
-3.0589136349969e-13
-4.574923004209e-13
-2.45076369773088e-13
-3.78037753359629e-13
-1.88248475748283e-13
-3.17286588975462e-13
-1.3441020499093e-13
-2.72829133262998e-13
-8.25637022553438e-14
-2.43005660288407e-13
-3.17175001335885e-14
-2.26742071354553e-13
1.91140452714069e-14
-2.23528270734775e-13
7.09079114609356e-14
-2.33335007566403e-13
1.24646745898135e-13
-2.56653244786752e-13
1.81307961876894e-13
-2.94504902197708e-13
2.41860398963299e-13
-3.48517963671172e-13
3.07229242750012e-13
-4.21069272949556e-13
3.78227579356359e-13
-5.15411157792207e-13
4.55454479488385e-13
-6.35959565936422e-13
5.39063032676201e-13
-7.88564659091815e-13
6.28422505996718e-13
-9.80866691449827e-13
7.21553785142816e-13
-1.2226536978146e-12
8.1424258911264e-13
-1.52616735623338e-12
8.98719052734276e-13
-1.90614916759321e-12
9.61734129147954e-13
-2.37925222016096e-12
9.81908336112918e-13
-2.96198121905148e-12
9.26562985355901e-13
-3.66485841862811e-12
7.48346823640513e-13
-4.4791943758293e-12
3.8483293067597e-13
-5.34006538980551e-12
-2.35020968190834e-13
-6.04651985451243e-12
-1.1569253007017e-12
-6.06519939409893e-12
-2.32938646434423e-12
-4.26560075576548e-12
-3.42567661654812e-12
1.20852586835069e-12
-3.73763297772968e-12
1.13689161468055e-11
-2.27329973414017e-12
2.17987105311972e-11
1.75311606464654e-11
1.80302472685747e-12
1.55086438484257e-11
3.01382552944743e-12
2.06395649477919e-11
2.84793369958112e-12
1.1853150976067e-11
2.01167339686143e-12
2.32361865674983e-12
1.05911295236897e-12
-3.21236560436644e-12
2.71015252282181e-13
-5.31839543365614e-12
-2.87529826335813e-13
-5.59468076119392e-12
-6.36405889705442e-13
-5.11464828353485e-12
-8.24878027359931e-13
-4.4110077138237e-12
-9.01206586906983e-13
-3.69973449740109e-12
-9.04767409615188e-13
-3.05948847920144e-12
-8.64283210924624e-13
-2.51090372527039e-12
-7.99520062474991e-13
-2.05266568633433e-12
-7.23349243230515e-13
-1.67520664273123e-12
-6.43748658672796e-13
-1.36669653675768e-12
-5.65356357851754e-13
-1.11565720055879e-12
-4.90627101029357e-13
-9.11970582025921e-13
-4.20626772984452e-13
-7.47195664891428e-13
-3.5557186880016e-13
-6.14527509804415e-13
-2.95171400011026e-13
-5.08583202378703e-13
-2.3884666763499e-13
-4.25211899000931e-13
-1.85870281772942e-13
-3.61254042722185e-13
-1.35428644278945e-13
-3.1438578277425e-13
-8.66820981510005e-14
-2.82974712221819e-13
-3.87760117227937e-14
-2.65961770245168e-13
9.14695019327298e-15
-2.62841758218629e-13
5.79342693859846e-14
-2.73575276206533e-13
1.08434244456631e-13
-2.98655668949479e-13
1.61466563553237e-13
-3.39077497540575e-13
2.17817588977128e-13
-3.96436717456569e-13
2.78180354384197e-13
-4.73016605486517e-13
3.43093633826075e-13
-5.71916687660704e-13
4.12800522321631e-13
-6.97256931091617e-13
4.87026411772685e-13
-8.54369590716485e-13
5.64633871155357e-13
-1.05003229496097e-12
6.43082755232783e-13
-1.29262971716684e-12
7.17629908899083e-13
-1.59219964118852e-12
7.80167839677107e-13
-1.96011792896716e-12
8.17652422108902e-13
-2.40810246037928e-12
8.10055579147795e-13
-2.94567319236098e-12
7.28270160386347e-13
-3.57428036604759e-12
5.32327073554629e-13
-4.2743823229514e-12
1.73151752979628e-13
-4.97196132439082e-12
-3.99356148675637e-13
-5.46504213300515e-12
-1.20499604698536e-12
-5.25052107775507e-12
-2.17550980103368e-12
-3.28580357258677e-12
-3.0198729949457e-12
2.06276939620071e-12
-3.16438902508616e-12
1.15238203383368e-11
-1.88147450794585e-12
2.05250385432762e-11
1.56545035025944e-11
1.43373133072118e-12
1.40857751569633e-11
2.44295320562796e-12
1.96418295456186e-11
2.39670650780422e-12
1.19096592700363e-11
1.77909748028846e-12
2.95073597625948e-12
1.01960677143558e-12
-2.44407298151061e-12
3.55875308189781e-13
-4.64649589546829e-12
-1.39740702771274e-13
-5.09141573933533e-12
-4.68043513539708e-13
-4.7791123903156e-12
-6.60508513256308e-13
-4.21165259350935e-12
-7.52959993155669e-13
-3.60068954866623e-12
-7.77126925937135e-13
-3.02899790837115e-12
-7.57536310531154e-13
-2.52442441306385e-12
-7.11920290630857e-13
-2.09245564539985e-12
-6.52381639272582e-13
-1.7291547543107e-12
-5.86798411254882e-13
-1.4269173524462e-12
-5.20035479040392e-13
-1.17727654840039e-12
-4.54892740503687e-13
-9.72177399558726e-13
-3.92798519184586e-13
-8.04548717578976e-13
-3.34307603694563e-13
-6.68457079493792e-13
-2.79421230818978e-13
-5.59072995856572e-13
-2.27807880063661e-13
-4.72576614579699e-13
-1.78942633893365e-13
-4.06002225507459e-13
-1.32186283356648e-13
-3.57139913284581e-13
-8.68475242830573e-14
-3.24410745629718e-13
-4.22034414490245e-14
-3.06787252427922e-13
2.47488121582343e-15
-3.03771576788886e-13
4.79143911501397e-14
-3.15323118573843e-13
9.48242011786598e-14
-3.41918979908919e-13
1.43879483690601e-13
-3.84520669087878e-13
1.956935196526e-13
-4.44662522468391e-13
2.50756184811618e-13
-5.24506145186859e-13
3.09360123202714e-13
-6.26953692213036e-13
3.71456328626379e-13
-7.55784381415225e-13
4.36435083698113e-13
-9.15769801173368e-13
5.02795050000692e-13
-1.11279599320773e-12
5.67655481751425e-13
-1.35386784262727e-12
6.26050036671046e-13
-1.64693768834882e-12
6.69981097290923e-13
-2.00035025870185e-12
6.87179220243411e-13
-2.42155115184485e-12
6.59680468768119e-13
-2.91436945344271e-12
5.62634681244271e-13
-3.47337463807688e-12
3.63835020653278e-13
-4.07167754978543e-12
2.68749336988975e-14
-4.63107281781209e-12
-4.80209341346203e-13
-4.95402807621079e-12
-1.15778081829711e-12
-4.56900069706579e-12
-1.93035131391388e-12
-2.50911547264038e-12
-2.55127718559656e-12
2.68828553236178e-12
-2.57520020293195e-12
1.15527018392536e-11
-1.50175116299203e-12
1.94557617976602e-11
1.41543221889067e-11
1.11500329040955e-12
1.29773724476117e-11
1.93530849603348e-12
1.88275305956426e-11
1.96874051838486e-12
1.188119386586e-11
1.52898701529749e-12
3.39494273983787e-12
9.39425626196102e-13
-1.85055424710437e-12
3.94335532690847e-13
-4.09792443020614e-12
-3.36112764457967e-14
-4.66039196329124e-12
-3.32436996790065e-13
-4.47754158949657e-12
-5.19560226512925e-13
-4.02206345629212e-12
-6.20094088177338e-13
-3.49793855908809e-12
-6.58615458960409e-13
-2.98849087959681e-12
-6.55377074274608e-13
-2.52590096107034e-12
-6.25773192024085e-13
-2.12051647080348e-12
-5.80800143295058e-13
-1.77280028624203e-12
-5.27941463543945e-13
-1.47865814003417e-12
-4.72050521086686e-13
-1.23225215857105e-12
-4.16095244241047e-13
-1.02741029580859e-12
-3.61750646930592e-13
-8.5835228882982e-13
-3.09821109092709e-13
-7.20013224192136e-13
-2.60545051153017e-13
-6.0812926484041e-13
-2.13800226645377e-13
-5.19239164026391e-13
-1.69242745538894e-13
-4.50599654938087e-13
-1.26393430864629e-13
-4.00135831941112e-13
-8.47010751346731e-14
-3.66341733478974e-13
-4.35678941090409e-14
-3.48236327505439e-13
-2.39090489638559e-15
-3.45328585512191e-13
3.94397009290059e-14
-3.57585392870341e-13
8.25034324902269e-14
-3.85454655644029e-13
1.27338718487481e-13
-4.29858353826398e-13
1.74397638160581e-13
-4.92245069983729e-13
2.2399169607845e-13
-5.7463663578299e-13
2.76202547368756e-13
-6.79705763641162e-13
3.30746863165299e-13
-8.10867558716133e-13
3.86765931696693e-13
-9.72319189339591e-13
4.42516353870946e-13
-1.16906112733143e-12
4.94951517055457e-13
-1.40679616581336e-12
5.39122536621995e-13
-1.69157468651881e-12