/*--------------------------------*- C++ -*----------------------------------*\
  =========                 |
  \\      /  F ield         | OpenFOAM: The Open Source CFD Toolbox
   \\    /   O peration     | Website:  https://openfoam.org
    \\  /    A nd           | Version:  10
     \\/     M anipulation  |
\*---------------------------------------------------------------------------*/
FoamFile
{
    format      ascii;
    class       volScalarField;
    location    "9.4";
    object      rho;
}
// * * * * * * * * * * * * * * * * * * * * * * * * * * * * * * * * * * * * * //

dimensions      [1 -3 0 0 0 0 0];

internalField   nonuniform List<scalar> 
2500
(
1.14636465269671
1.14636882097022
1.14639719788989
1.14642182048312
1.14643918662399
1.14645054173612
1.14645770368002
1.14646211635045
1.14646476926658
1.14646631611995
1.14646719453762
1.14646767537299
1.14646792962423
1.14646806145941
1.14646812809398
1.14646816199033
1.14646817793201
1.14646818660023
1.14646819201743
1.14646819506485
1.14646819712957
1.1464681986561
1.14646819980025
1.14646820048827
1.14646820114343
1.1464682016157
1.14646820173161
1.14646820163831
1.1464682012675
1.14646820051351
1.14646819915087
1.14646819645066
1.14646819197079
1.14646818342201
1.14646816643079
1.14646813214084
1.14646806334603
1.14646792836454
1.14646766635014
1.14646717851213
1.14646629521864
1.14646474421953
1.14646210002908
1.14645771138572
1.14645058012649
1.14643925690245
1.14642186206067
1.14639710465185
1.14636864863249
1.14636493385216
1.148857412798
1.14890999209558
1.14899463172529
1.14906513179001
1.14911513783611
1.14914828095251
1.14916953531748
1.14918286171268
1.14919102355169
1.14919588570256
1.149198696064
1.14920026706881
1.14920111578659
1.1492015597882
1.14920178473298
1.14920189558805
1.14920194825997
1.14920197326266
1.14920198538241
1.14920199121885
1.14920199426105
1.14920199604131
1.14920199718134
1.14920199788594
1.14920199844961
1.14920199884807
1.14920199898442
1.14920199890077
1.14920199846673
1.14920199733514
1.14920199473926
1.14920198891659
1.14920197650296
1.14920194993556
1.14920189385894
1.14920177786537
1.14920154418317
1.14920108728753
1.14920022023095
1.14919862966684
1.14919580366739
1.14919093754478
1.14918280015645
1.1491695370461
1.14914837292647
1.14911528677424
1.14906514676663
1.14899419445662
1.14890920613969
1.14885891775087
1.1515272368299
1.15163579671311
1.15176470011625
1.15186755209167
1.15193960347481
1.1519870807763
1.15201742228604
1.15203640771229
1.15204802729621
1.15205495397898
1.15205896214487
1.15206120742634
1.15206242356179
1.15206306067338
1.15206338357325
1.15206354212265
1.15206361740511
1.15206365241467
1.15206366856466
1.15206367594751
1.15206367944468
1.15206368125386
1.15206368229174
1.15206368291217
1.15206368335863
1.15206368366751
1.15206368379405
1.15206368372681
1.15206368327939
1.15206368196525
1.15206367870899
1.15206367107478
1.1520636539562
1.15206361652851
1.1520635367203
1.15206337089953
1.15206303635156
1.15206238222673
1.15206114333776
1.15205887313631
1.1520548444617
1.15204791300108
1.15203632243806
1.15201741174943
1.15198717003768
1.15193971269215
1.15186735765934
1.15176365447243
1.15163383855067
1.15152788704825
1.15409988337604
1.15424924641685
1.15439854047323
1.15451275315043
1.15459088830053
1.15464139020911
1.1546731003698
1.15469262698431
1.15470441011573
1.15471134877551
1.15471532076442
1.15471752485436
1.15471870867199
1.15471932391833
1.15471963332845
1.15471978398581
1.15471985496577
1.154719887539
1.15471990222617
1.15471990875916
1.15471991172078
1.1547199131672
1.15471991395458
1.15471991441503
1.15471991473044
1.15471991495174
1.15471991506247
1.15471991505452
1.15471991475207
1.15471991369533
1.154719910913
1.15471990415585
1.1547198885605
1.15471985391736
1.15471977920268
1.15471962241708
1.15471930316197
1.15471867328272
1.15471746964928
1.15471524273207
1.15471124999528
1.15470430228977
1.15469253638692
1.15467306153899
1.15464140868208
1.15459083856341
1.15451221069979
1.15439676204458
1.15424584275639
1.15409790933192
1.15636678545496
1.15653244004714
1.15668047608685
1.15678931537646
1.15686189256749
1.15690780985204
1.15693608849365
1.15695320448773
1.15696338102914
1.15696929941054
1.15697265202335
1.15697449612079
1.15697547922861
1.1569759868224
1.15697624057242
1.15697636339187
1.15697642091475
1.15697644707512
1.15697645869087
1.15697646374639
1.15697646595752
1.15697646698522
1.15697646751909
1.15697646782199
1.15697646802179
1.15697646816648
1.15697646825438
1.15697646828147
1.15697646812147
1.15697646739712
1.15697646533202
1.15697646014179
1.15697644787427
1.15697642028321
1.15697636026392
1.15697623333016
1.15697597291678
1.15697545523295
1.15697445815359
1.1569725972174
1.15696922797047
1.15696329954289
1.1569531290299
1.15693603799631
1.15690776851708
1.15686170405634
1.15678850043194
1.15667815447139
1.15652782697893
1.15636185720185
1.15821251264997
1.15837114258067
1.15850182362809
1.15859443706949
1.15865461206
1.15869185308551
1.15871433787932
1.15872771211822
1.15873554823964
1.1587400512641
1.1587425775642
1.15874395640574
1.15874468690501
1.15874506213707
1.15874524889088
1.15874533890178
1.15874538087273
1.15874539983076
1.15874540814692
1.1587454116951
1.15874541319297
1.15874541385282
1.15874541417771
1.1587454143542
1.1587454144659
1.1587454145514
1.15874541461526
1.15874541465361
1.15874541459726
1.1587454141643
1.15874541278406
1.1587454091828
1.15874540047232
1.15874538066797
1.15874533729143
1.15874524498802
1.15874505449324
1.15874467348434
1.15874393477291
1.15874254560758
1.15874000837554
1.15873549733847
1.15872766122711
1.15871429360595
1.15869178621352
1.15865435865726
1.15859351727551
1.15849930844845
1.15836593288223
1.15820542088241
1.15961155947124
1.15974721892357
1.15985209576928
1.15992394989672
1.15996945647712
1.15999700457326
1.16001331023391
1.16002284287866
1.16002834882855
1.16003147701024
1.16003321652284
1.1600341595225
1.16003465654922
1.1600349108469
1.16003503701005
1.16003509763942
1.16003512581691
1.16003513847448
1.16003514396818
1.16003514626664
1.1600351472001
1.16003514758465
1.16003514776068
1.16003514784995
1.16003514790272
1.16003514794746
1.16003514799038
1.16003514802542
1.16003514802239
1.16003514779789
1.16003514695941
1.16003514465882
1.16003513895882
1.16003512586534
1.16003509702312
1.16003503534646
1.16003490746726
1.16003465045769
1.16003414944893
1.16003320122375
1.16003145584928
1.16002832287705
1.16002281553798
1.16001328148962
1.15999694212376
1.15996921082603
1.15992308845999
1.1598497353946
1.15974211658987
1.15960360029477
1.16060466551824
1.16071035181902
1.16078790894252
1.16083941527192
1.160871233259
1.16089007938532
1.16090101724861
1.16090730364722
1.16091088430868
1.16091289670069
1.16091400667533
1.16091460483589
1.1609149187785
1.16091507892574
1.16091515820496
1.16091519622895
1.1609152138569
1.16091522173819
1.16091522512502
1.16091522651386
1.16091522705301
1.16091522725544
1.16091522733863
1.16091522737578
1.16091522739382
1.16091522741332
1.1609152274402
1.16091522746984
1.16091522748509
1.16091522738426
1.16091522691925
1.16091522555076
1.1609152220711
1.16091521399501
1.16091519611585
1.1609151577335
1.16091507787093
1.16091491676684
1.16091460134386
1.16091400113512
1.16091288876522
1.16091087443571
1.16090729330114
1.16090100441582
1.16089003627806
1.1608710387913
1.16083871464479
1.16078593906722
1.16070590481091
1.1605970610468
1.16126813268267
1.16134413277953
1.16139749726195
1.16143193175731
1.16145269927135
1.16146474027038
1.1614715945699
1.16147546832869
1.16147764488164
1.16147885548014
1.16147951818827
1.16147987345448
1.16148005927162
1.16148015385389
1.16148020061063
1.16148022300903
1.16148023337366
1.16148023798799
1.16148023995183
1.16148024074064
1.1614802410303
1.16148024112466
1.16148024115832
1.16148024116958
1.16148024116906
1.16148024117411
1.16148024118972
1.161480241212
1.16148024123006
1.1614802411944
1.16148024095681
1.16148024019263
1.16148023819437
1.16148023350644
1.16148022308037
1.16148020062949
1.16148015379616
1.16148005906327
1.16147987295865
1.16147951724053
1.16147885402166
1.16147764330544
1.16147546758983
1.16147159309236
1.16146471805228
1.16145256791213
1.16143142421738
1.16139600918558
1.16134062151275
1.16126169325536
1.16168710642156
1.1617380365942
1.16177245772636
1.16179408477701
1.16180683138633
1.16181406976068
1.16181811252657
1.16182035974891
1.16182160558229
1.16182229157594
1.16182266445668
1.16182286342375
1.16182296719862
1.16182301994103
1.16182304599477
1.16182305846789
1.16182306423163
1.16182306678752
1.16182306786484
1.16182306828846
1.16182306843519
1.16182306847285
1.1618230684778
1.16182306847607
1.16182306847202
1.16182306847227
1.16182306848061
1.16182306849549
1.16182306851041
1.16182306850317
1.1618230683912
1.16182306798881
1.16182306690238
1.16182306432463
1.16182305856653
1.16182304613845
1.16182302016954
1.16182296754501
1.16182286390522
1.16182266509243
1.16182229247492
1.16182160718938
1.16182036299048
1.16181811693063
1.16181406296512
1.16180675459316
1.16179375217357
1.16177142716858
1.16173549191942
1.16168216106604
1.16193816021447
1.16197019935935
1.1619911388918
1.16200397425159
1.16201137467251
1.16201549313841
1.16201775083958
1.16201898541454
1.16201966084235
1.16202002911844
1.16202022796178
1.16202033362135
1.16202038860499
1.16202041652319
1.16202043031135
1.16202043691144
1.16202043995807
1.1620204413039
1.16202044186551
1.16202044208133
1.1620204421489
1.16202044215884
1.16202044215544
1.16202044215044
1.16202044214622
1.16202044214553
1.16202044214962
1.16202044215923
1.16202044217051
1.16202044217262
1.16202044212342
1.16202044192304
1.16202044136078
1.16202044001098
1.16202043698299
1.16202043043652
1.16202041674556
1.16202038897459
1.16202033419124
1.16202022880391
1.16202003039426
1.16201966299705
1.16201898936376
1.16201775697484
1.16201549489528
1.16201133614373
1.16200377512658
1.16199047826815
1.16196848967141
1.16193466373908
1.16208139567392
1.16210042752416
1.16211250182274
1.1621197351229
1.16212381911695
1.162126047941
1.16212724761163
1.16212789307317
1.16212824158766
1.16212842978638
1.16212853074916
1.16212858419497
1.16212861195688
1.16212862604638
1.16212863300652
1.16212863633901
1.16212863787605
1.16212863855242
1.16212863883159
1.16212863893537
1.1621286389634
1.16212863896402
1.16212863895977
1.16212863895493
1.16212863895163
1.16212863895064
1.1621286389526
1.1621286389585
1.16212863896612
1.16212863896999
1.16212863895012
1.16212863885515
1.16212863857691
1.16212863790083
1.16212863637791
1.16212863308181
1.16212862618772
1.1621286122011
1.16212858458608
1.16212853135347
1.16212843075018
1.16212824328962
1.1621278963163
1.16212725318197
1.16212605293551
1.16212380329532
1.16211962558508
1.16211210689131
1.16209935413151
1.16207909543672
1.1621594457218
1.16217017289744
1.16217680062249
1.16218068728908
1.16218283845835
1.16218399049333
1.16218459957291
1.16218492205462
1.16218509390962
1.16218518582599
1.16218523482974
1.1621852606804
1.16218527408907
1.16218528089365
1.16218528425718
1.16218528586853
1.16218528661125
1.16218528693679
1.16218528706952
1.16218528711664
1.16218528712728
1.16218528712578
1.16218528712225
1.16218528711872
1.16218528711648
1.16218528711563
1.16218528711655
1.16218528711997
1.16218528712466
1.16218528712784
1.16218528712061
1.16218528707757
1.16218528694537
1.16218528662021
1.16218528588485
1.16218528429245
1.16218528096373
1.16218527421434
1.16218526088701
1.16218523516227
1.16218518639126
1.16218509498908
1.16218492426962
1.16218460373972
1.16218399566663
1.16218283407599
1.16218063180848
1.16217657912973
1.16216953908763
1.16215802627858
1.162200176622
1.16220593741176
1.16220941336861
1.16221141176235
1.16221249711861
1.16221306788799
1.16221336441548
1.1622135189341
1.16221360020682
1.16221364326118
1.16221366607515
1.1622136780713
1.16221368428684
1.16221368744196
1.16221368900304
1.16221368975152
1.16221369009634
1.16221369024684
1.16221369030739
1.16221369032777
1.16221369033135
1.16221369032978
1.16221369032738
1.16221369032515
1.16221369032378
1.16221369032319
1.16221369032363
1.1622136903255
1.16221369032818
1.16221369033033
1.16221369032804
1.16221369030923
1.16221369024871
1.16221369009804
1.162213689756
1.16221368901533
1.16221368746897
1.16221368433751
1.16221367815801
1.16221366622285
1.16221364353783
1.16221360080023
1.16221352027615
1.16221336716946
1.16221307197484
1.16221249743435
1.16221138594747
1.16220929627226
1.16220558353782
1.16219934977557
1.16222058176658
1.1622235398737
1.16222528725798
1.16222627354576
1.16222679972069
1.16222707162778
1.16222721049647
1.16222728172764
1.16222731870459
1.16222733810591
1.16222734832459
1.1622273536816
1.16222735645495
1.16222735786359
1.16222735856143
1.16222735889636
1.16222735905059
1.16222735911761
1.1622273591442
1.16222735915258
1.16222735915356
1.16222735915246
1.16222735915103
1.16222735914975
1.16222735914897
1.16222735914863
1.16222735914883
1.1622273591498
1.16222735915123
1.16222735915248
1.16222735915189
1.16222735914398
1.16222735911722
1.16222735904975
1.16222735889605
1.16222735856339
1.16222735787012
1.16222735646895
1.16222735370758
1.16222734837466
1.16222733821913
1.16222731899568
1.16222728247105
1.16222721215755
1.16222707441039
1.16222680134869
1.16222626261037
1.16222522867934
1.16222335220098
1.16222012473778
1.16223041420649
1.16223187111284
1.16223271549335
1.1622331840276
1.16223342980393
1.16223355469904
1.16223361743336
1.16223364911406
1.16223366534486
1.16223367377901
1.1622336781947
1.16223368050294
1.16223368169726
1.16223368230441
1.16223368260564
1.16223368275039
1.16223368281702
1.16223368284584
1.16223368285708
1.16223368286036
1.16223368286053
1.1622336828599
1.16223368285911
1.16223368285843
1.16223368285802
1.16223368285783
1.16223368285792
1.1622336828584
1.16223368285913
1.1622336828598
1.16223368285972
1.16223368285648
1.16223368284502
1.16223368281574
1.16223368274884
1.16223368260418
1.16223368230343
1.16223368169711
1.16223368050459
1.16223367820324
1.16223367381514
1.16223366547369
1.16223364949722
1.1622336183648
1.16223355640947
1.16223343136564
1.16223317990451
1.16223268767932
1.1622317762028
1.16223017346149
1.16223497675012
1.16223566687992
1.16223606008402
1.16223627484576
1.16223638572747
1.16223644117748
1.16223646858369
1.16223648221226
1.16223648910308
1.16223649264908
1.16223649449447
1.16223649545649
1.16223649595407
1.16223649620731
1.16223649633316
1.16223649639372
1.16223649642159
1.16223649643358
1.16223649643816
1.16223649643941
1.16223649643938
1.16223649643903
1.16223649643862
1.16223649643828
1.16223649643808
1.16223649643798
1.16223649643803
1.16223649643825
1.1622364964386
1.16223649643895
1.16223649643897
1.16223649643768
1.16223649643291
1.16223649642058
1.16223649639231
1.16223649633126
1.1622364962047
1.16223649595035
1.16223649545138
1.16223649448981
1.1622364926551
1.16223648915448
1.1622364823982
1.16223646907522
1.16223644214948
1.1622363868421
1.16223627354139
1.16223604752041
1.16223562095426
1.16223485544673
1.16223701487003
1.1622373300648
1.16223750691537
1.16223760210715
1.16223765052806
1.1622376743754
1.16223768597926
1.16223769166283
1.16223769449891
1.16223769594404
1.1622376966916
1.16223769708026
1.16223769728126
1.16223769738368
1.16223769743468
1.16223769745925
1.16223769747055
1.16223769747539
1.1622376974772
1.16223769747765
1.1622376974776
1.16223769747742
1.16223769747723
1.16223769747707
1.16223769747697
1.16223769747692
1.16223769747694
1.16223769747704
1.16223769747721
1.16223769747737
1.16223769747741
1.1622376974769
1.16223769747497
1.16223769746991
1.1622376974583
1.16223769743325
1.16223769738149
1.16223769727783
1.16223769707511
1.16223769668521
1.16223769594121
1.16223769451712
1.16223769174857
1.16223768622551
1.16223767489346
1.16223765121417
1.1622376018285
1.16223750150819
1.16223730873805
1.16223695621799
1.16223788782515
1.16223802692816
1.16223810390908
1.16223814478992
1.16223816529693
1.1622381752512
1.16223818002242
1.16223818232486
1.16223818345875
1.1622381840308
1.16223818432492
1.16223818447743
1.16223818455629
1.16223818459653
1.1622381846166
1.16223818462628
1.16223818463073
1.16223818463262
1.16223818463331
1.16223818463347
1.16223818463343
1.16223818463335
1.16223818463326
1.16223818463318
1.16223818463314
1.16223818463312
1.16223818463313
1.16223818463317
1.16223818463324
1.16223818463332
1.16223818463334
1.16223818463315
1.16223818463239
1.16223818463037
1.16223818462573
1.16223818461573
1.16223818459513
1.16223818455401
1.16223818447389
1.16223818432017
1.16223818402698
1.16223818346425
1.16223818236271
1.16223818014033
1.16223817551269
1.16223816568016
1.16223814481526
1.16223810169
1.16223801739878
1.16223786053478
1.16223824140891
1.16223830084796
1.16223833333738
1.16223835037788
1.16223835881554
1.16223836285539
1.16223836476391
1.16223836567159
1.16223836611275
1.16223836633308
1.16223836644565
1.16223836650385
1.16223836653394
1.16223836654931
1.16223836655699
1.16223836656069
1.16223836656239
1.16223836656311
1.16223836656336
1.16223836656341
1.16223836656339
1.16223836656335
1.16223836656331
1.16223836656328
1.16223836656326
1.16223836656325
1.16223836656325
1.16223836656327
1.1622383665633
1.16223836656334
1.16223836656335
1.16223836656328
1.16223836656299
1.16223836656221
1.16223836656041
1.16223836655652
1.16223836654854
1.16223836653266
1.16223836650182
1.1622383664428
1.16223836633034
1.16223836611398
1.16223836568769
1.16223836481816
1.16223836298126
1.16223835901457
1.16223835045538
1.16223833246912
1.16223829674124
1.16223822915896
1.16223837094796
1.16223839558418
1.16223840890102
1.16223841580619
1.16223841918421
1.16223842078072
1.16223842152454
1.16223842187328
1.16223842204055
1.16223842212323
1.16223842216518
1.16223842218679
1.16223842219796
1.16223842220366
1.1622384222065
1.16223842220787
1.1622384222085
1.16223842220875
1.16223842220884
1.16223842220885
1.16223842220884
1.16223842220882
1.16223842220881
1.16223842220879
1.16223842220878
1.16223842220878
1.16223842220878
1.16223842220879
1.1622384222088
1.16223842220882
1.16223842220883
1.16223842220881
1.1622384222087
1.16223842220841
1.16223842220774
1.16223842220628
1.16223842220327
1.1622384221973
1.16223842218575
1.16223842216368
1.16223842212165
1.16223842204061
1.16223842187992
1.16223842154862
1.16223842083882
1.16223841928168
1.16223841586721
1.16223840857759
1.16223839387364
1.16223836563146
1.16223840677981
1.16223841670098
1.16223842200995
1.16223842473393
1.16223842605161
1.16223842666678
1.16223842694958
1.16223842708031
1.16223842714217
1.1622384271724
1.16223842718761
1.16223842719541
1.16223842719942
1.16223842720146
1.16223842720248
1.16223842720296
1.16223842720317
1.16223842720326
1.16223842720328
1.16223842720328
1.16223842720327
1.16223842720326
1.16223842720325
1.16223842720325
1.16223842720325
1.16223842720324
1.16223842720325
1.16223842720325
1.16223842720326
1.16223842720326
1.16223842720327
1.16223842720327
1.16223842720324
1.16223842720314
1.1622384272029
1.16223842720237
1.16223842720129
1.16223842719912
1.16223842719492
1.16223842718689
1.1622384271716
1.16223842714202
1.16223842708299
1.16223842695994
1.1622384266926
1.16223842609704
1.16223842477062
1.16223842189562
1.16223841601106
1.16223840454443
1.16223840454588
1.1622384084336
1.16223841049492
1.16223841154228
1.16223841204362
1.16223841227497
1.16223841237994
1.16223841242777
1.16223841245007
1.16223841246082
1.16223841246617
1.16223841246888
1.16223841247026
1.16223841247095
1.16223841247128
1.16223841247143
1.16223841247149
1.16223841247151
1.16223841247151
1.16223841247151
1.1622384124715
1.1622384124715
1.16223841247149
1.16223841247149
1.16223841247149
1.16223841247149
1.16223841247149
1.16223841247149
1.1622384124715
1.1622384124715
1.16223841247151
1.16223841247151
1.16223841247151
1.16223841247148
1.16223841247141
1.16223841247124
1.16223841247087
1.16223841247013
1.16223841246866
1.16223841246585
1.16223841246045
1.16223841244996
1.16223841242883
1.16223841238427
1.16223841228606
1.1622384120639
1.16223841156158
1.16223841045681
1.16223840816367
1.16223840363365
1.16223838727016
1.16223838875462
1.16223838953499
1.16223838992784
1.16223839011402
1.16223839019897
1.162238390237
1.16223839025405
1.16223839026187
1.16223839026555
1.16223839026735
1.16223839026823
1.16223839026867
1.16223839026887
1.16223839026896
1.16223839026899
1.162238390269
1.162238390269
1.16223839026899
1.16223839026898
1.16223839026897
1.16223839026897
1.16223839026897
1.16223839026896
1.16223839026896
1.16223839026896
1.16223839026897
1.16223839026897
1.16223839026897
1.16223839026898
1.16223839026898
1.16223839026899
1.162238390269
1.162238390269
1.16223839026899
1.16223839026895
1.16223839026885
1.16223839026862
1.16223839026815
1.16223839026722
1.1622383902654
1.16223839026181
1.16223839025448
1.16223839023877
1.16223839020359
1.16223839012273
1.16223838993715
1.16223838952314
1.16223838865201
1.16223838690826
1.16223836420432
1.16223836475731
1.16223836504558
1.16223836518936
1.16223836525683
1.16223836528725
1.16223836530067
1.16223836530657
1.16223836530919
1.16223836531038
1.16223836531093
1.16223836531118
1.16223836531128
1.16223836531132
1.16223836531132
1.16223836531131
1.1622383653113
1.16223836531129
1.16223836531128
1.16223836531127
1.16223836531126
1.16223836531126
1.16223836531126
1.16223836531125
1.16223836531125
1.16223836531125
1.16223836531125
1.16223836531126
1.16223836531126
1.16223836531126
1.16223836531127
1.16223836531128
1.16223836531129
1.1622383653113
1.16223836531131
1.16223836531132
1.16223836531131
1.16223836531127
1.16223836531115
1.16223836531089
1.16223836531033
1.16223836530918
1.16223836530674
1.16223836530139
1.16223836528913
1.16223836526044
1.16223836519357
1.16223836504222
1.16223836471935
1.16223836406452
1.16223833896439
1.16223833916558
1.16223833926948
1.16223833932076
1.16223833934455
1.16223833935513
1.1622383393597
1.16223833936165
1.16223833936246
1.1622383393628
1.16223833936292
1.16223833936295
1.16223833936295
1.16223833936293
1.1622383393629
1.16223833936288
1.16223833936286
1.16223833936285
1.16223833936283
1.16223833936283
1.16223833936282
1.16223833936282
1.16223833936281
1.16223833936281
1.16223833936281
1.16223833936281
1.16223833936281
1.16223833936281
1.16223833936282
1.16223833936282
1.16223833936283
1.16223833936284
1.16223833936285
1.16223833936287
1.16223833936288
1.16223833936291
1.16223833936293
1.16223833936295
1.16223833936295
1.16223833936291
1.16223833936279
1.16223833936247
1.16223833936173
1.16223833935999
1.16223833935588
1.162238339346
1.16223833932256
1.16223833926865
1.16223833915189
1.16223833891174
1.16223831292723
1.16223831299877
1.16223831303522
1.16223831305293
1.16223831306101
1.16223831306454
1.16223831306601
1.16223831306659
1.1622383130668
1.16223831306685
1.16223831306684
1.1622383130668
1.16223831306676
1.16223831306673
1.16223831306669
1.16223831306667
1.16223831306665
1.16223831306663
1.16223831306662
1.16223831306661
1.1622383130666
1.1622383130666
1.1622383130666
1.1622383130666
1.1622383130666
1.1622383130666
1.1622383130666
1.1622383130666
1.1622383130666
1.16223831306661
1.16223831306661
1.16223831306662
1.16223831306664
1.16223831306665
1.16223831306667
1.1622383130667
1.16223831306673
1.16223831306677
1.16223831306681
1.16223831306684
1.16223831306685
1.16223831306681
1.16223831306664
1.16223831306613
1.16223831306484
1.16223831306158
1.16223831305366
1.16223831303506
1.16223831299394
1.16223831290786
1.16223828660423
1.16223828662909
1.16223828664143
1.16223828664723
1.1622382866498
1.16223828665088
1.16223828665129
1.16223828665142
1.16223828665143
1.16223828665139
1.16223828665134
1.16223828665129
1.16223828665125
1.16223828665121
1.16223828665118
1.16223828665115
1.16223828665113
1.16223828665111
1.1622382866511
1.16223828665109
1.16223828665109
1.16223828665108
1.16223828665108
1.16223828665108
1.16223828665108
1.16223828665108
1.16223828665108
1.16223828665108
1.16223828665108
1.16223828665109
1.1622382866511
1.16223828665111
1.16223828665112
1.16223828665113
1.16223828665116
1.16223828665118
1.16223828665122
1.16223828665126
1.1622382866513
1.16223828665135
1.16223828665141
1.16223828665145
1.16223828665145
1.16223828665135
1.162238286651
1.16223828665002
1.16223828664751
1.16223828664141
1.16223828662742
1.16223828659726
1.16223826018093
1.16223826018936
1.16223826019326
1.16223826019494
1.16223826019562
1.16223826019587
1.16223826019594
1.16223826019593
1.16223826019589
1.16223826019583
1.16223826019578
1.16223826019573
1.16223826019568
1.16223826019565
1.16223826019562
1.16223826019559
1.16223826019557
1.16223826019556
1.16223826019555
1.16223826019554
1.16223826019553
1.16223826019553
1.16223826019553
1.16223826019552
1.16223826019552
1.16223826019552
1.16223826019553
1.16223826019553
1.16223826019553
1.16223826019554
1.16223826019554
1.16223826019555
1.16223826019556
1.16223826019558
1.1622382601956
1.16223826019562
1.16223826019565
1.16223826019569
1.16223826019574
1.16223826019579
1.16223826019585
1.1622382601959
1.16223826019595
1.16223826019597
1.16223826019592
1.1622382601957
1.16223826019504
1.16223826019326
1.16223826018878
1.16223826017847
1.16223823372315
1.16223823372592
1.16223823372694
1.16223823372723
1.16223823372728
1.16223823372727
1.16223823372724
1.16223823372719
1.16223823372714
1.16223823372709
1.16223823372704
1.162238233727
1.16223823372696
1.16223823372693
1.1622382337269
1.16223823372688
1.16223823372686
1.16223823372685
1.16223823372684
1.16223823372683
1.16223823372682
1.16223823372682
1.16223823372682
1.16223823372681
1.16223823372681
1.16223823372681
1.16223823372681
1.16223823372682
1.16223823372682
1.16223823372682
1.16223823372683
1.16223823372684
1.16223823372685
1.16223823372686
1.16223823372688
1.16223823372691
1.16223823372693
1.16223823372697
1.16223823372701
1.16223823372705
1.1622382337271
1.16223823372716
1.16223823372721
1.16223823372726
1.16223823372729
1.16223823372731
1.16223823372725
1.16223823372693
1.16223823372571
1.1622382337223
1.16223820725375
1.16223820725461
1.16223820725467
1.1622382072545
1.16223820725436
1.16223820725428
1.16223820725423
1.16223820725419
1.16223820725414
1.1622382072541
1.16223820725406
1.16223820725403
1.16223820725399
1.16223820725397
1.16223820725394
1.16223820725392
1.16223820725391
1.1622382072539
1.16223820725389
1.16223820725388
1.16223820725387
1.16223820725387
1.16223820725387
1.16223820725386
1.16223820725386
1.16223820725386
1.16223820725387
1.16223820725387
1.16223820725387
1.16223820725387
1.16223820725388
1.16223820725389
1.1622382072539
1.16223820725391
1.16223820725393
1.16223820725395
1.16223820725397
1.162238207254
1.16223820725404
1.16223820725407
1.16223820725412
1.16223820725416
1.1622382072542
1.16223820725425
1.1622382072543
1.16223820725437
1.1622382072545
1.16223820725465
1.16223820725452
1.16223820725345
1.16223818078051
1.16223818078074
1.1622381807805
1.16223818078019
1.16223818078
1.16223818077991
1.16223818077986
1.16223818077983
1.1622381807798
1.16223818077977
1.16223818077974
1.16223818077972
1.16223818077969
1.16223818077967
1.16223818077965
1.16223818077963
1.16223818077962
1.16223818077961
1.1622381807796
1.16223818077959
1.16223818077959
1.16223818077958
1.16223818077958
1.16223818077958
1.16223818077958
1.16223818077958
1.16223818077958
1.16223818077958
1.16223818077958
1.16223818077959
1.16223818077959
1.1622381807796
1.16223818077961
1.16223818077962
1.16223818077963
1.16223818077965
1.16223818077967
1.1622381807797
1.16223818077972
1.16223818077975
1.16223818077979
1.16223818077982
1.16223818077985
1.16223818077988
1.16223818077992
1.16223818078
1.16223818078018
1.16223818078047
1.16223818078069
1.1622381807804
1.16223815430602
1.16223815430605
1.16223815430572
1.16223815430539
1.16223815430519
1.16223815430511
1.16223815430508
1.16223815430506
1.16223815430505
1.16223815430503
1.16223815430501
1.16223815430499
1.16223815430497
1.16223815430495
1.16223815430494
1.16223815430492
1.16223815430491
1.1622381543049
1.16223815430489
1.16223815430489
1.16223815430488
1.16223815430488
1.16223815430488
1.16223815430487
1.16223815430487
1.16223815430487
1.16223815430487
1.16223815430488
1.16223815430488
1.16223815430488
1.16223815430489
1.16223815430489
1.1622381543049
1.16223815430491
1.16223815430492
1.16223815430494
1.16223815430495
1.16223815430497
1.16223815430499
1.16223815430502
1.16223815430504
1.16223815430506
1.16223815430508
1.16223815430509
1.16223815430512
1.16223815430519
1.16223815430537
1.16223815430568
1.16223815430601
1.16223815430597
1.16223812783113
1.1622381278311
1.16223812783075
1.16223812783043
1.16223812783025
1.16223812783019
1.16223812783017
1.16223812783017
1.16223812783017
1.16223812783016
1.16223812783015
1.16223812783014
1.16223812783012
1.16223812783011
1.1622381278301
1.16223812783009
1.16223812783008
1.16223812783007
1.16223812783006
1.16223812783006
1.16223812783005
1.16223812783005
1.16223812783005
1.16223812783005
1.16223812783004
1.16223812783004
1.16223812783004
1.16223812783005
1.16223812783005
1.16223812783005
1.16223812783006
1.16223812783006
1.16223812783007
1.16223812783008
1.16223812783009
1.1622381278301
1.16223812783011
1.16223812783013
1.16223812783014
1.16223812783016
1.16223812783017
1.16223812783018
1.16223812783018
1.16223812783018
1.16223812783019
1.16223812783024
1.16223812783041
1.16223812783072
1.16223812783107
1.1622381278311
1.16223810135611
1.16223810135607
1.16223810135573
1.16223810135543
1.16223810135527
1.16223810135522
1.16223810135523
1.16223810135524
1.16223810135525
1.16223810135525
1.16223810135525
1.16223810135525
1.16223810135524
1.16223810135523
1.16223810135522
1.16223810135521
1.16223810135521
1.1622381013552
1.16223810135519
1.16223810135519
1.16223810135518
1.16223810135518
1.16223810135518
1.16223810135518
1.16223810135518
1.16223810135518
1.16223810135518
1.16223810135518
1.16223810135518
1.16223810135518
1.16223810135519
1.16223810135519
1.1622381013552
1.1622381013552
1.16223810135521
1.16223810135522
1.16223810135523