/*--------------------------------*- C++ -*----------------------------------*\
  =========                 |
  \\      /  F ield         | OpenFOAM: The Open Source CFD Toolbox
   \\    /   O peration     | Website:  https://openfoam.org
    \\  /    A nd           | Version:  10
     \\/     M anipulation  |
\*---------------------------------------------------------------------------*/
FoamFile
{
    format      ascii;
    class       volScalarField;
    location    "9.4";
    object      T;
}
// * * * * * * * * * * * * * * * * * * * * * * * * * * * * * * * * * * * * * //

dimensions      [0 0 0 1 0 0 0];

internalField   nonuniform List<scalar> 
2500
(
304.154266496745
304.153160573386
304.145631832959
304.139099463064
304.134492397679
304.131480074369
304.129580159961
304.128409582378
304.127705830569
304.127295490888
304.127062470214
304.126934917652
304.126867471768
304.126832499536
304.126814823239
304.126805831492
304.12680160262
304.126799303195
304.126797866171
304.126797057781
304.126796510075
304.126796105132
304.126795801623
304.126795619111
304.126795445315
304.126795320033
304.126795289284
304.126795314033
304.126795412394
304.1267956124
304.126795973865
304.126796690148
304.126797878521
304.126800146261
304.126804653547
304.126813749704
304.126831999049
304.126867805911
304.126937311149
304.127066721325
304.127301035429
304.127712474881
304.128413912008
304.129578115776
304.131469890096
304.134473753728
304.139088432715
304.145656569452
304.15320629771
304.154191900297
303.494313875818
303.480424610041
303.458069006563
303.439450557097
303.426245783499
303.417494528237
303.411882697302
303.408364209442
303.406209328586
303.404925642792
303.404183667292
303.403768901223
303.403544828983
303.403427607082
303.403368218933
303.40333895187
303.403325045863
303.403318444864
303.403315245115
303.403313704234
303.403312901062
303.403312431056
303.403312130077
303.403311944054
303.40331179524
303.40331169004
303.403311654041
303.403311676123
303.403311790711
303.403312089459
303.403312774796
303.403314312041
303.403317589377
303.403324603477
303.403339408363
303.403370032053
303.403431726988
303.403552353075
303.403781267004
303.404201197027
303.404947301281
303.406232035863
303.408380461546
303.411882240865
303.417470243683
303.426206456033
303.439446602082
303.458184492445
303.48063221748
303.493916311984
302.790653339599
302.762110533941
302.72822595257
302.701194898383
302.682261580868
302.669787017515
302.661815386815
302.656827555759
302.653774952129
302.651955259077
302.650902292968
302.650312449026
302.64999296662
302.64982559579
302.649740769259
302.649699117998
302.649679341148
302.649670144076
302.64966590145
302.649663961969
302.649663043261
302.649662567988
302.649662295338
302.649662132352
302.649662015066
302.649661933922
302.649661900677
302.64966191834
302.649662035875
302.649662381095
302.649663236513
302.649665242027
302.649669739104
302.649679571423
302.649700537194
302.649744098662
302.649831985178
302.650003825437
302.650329285291
302.650925675884
302.651984029921
302.653804978506
302.65684995852
302.661818154996
302.669763565197
302.682232883006
302.701245993525
302.728500788297
302.762625330615
302.790482366609
302.115684717858
302.07659011443
302.037523676878
302.007643961033
301.987206062349
301.973997693423
301.965704745935
301.960598306934
301.957516963291
301.955702500959
301.954663834098
301.954087472256
301.953777908995
301.953617024968
301.953536115754
301.953496719623
301.95347815874
301.953469641018
301.953465800407
301.953464092072
301.95346331763
301.953462939402
301.953462733509
301.953462613105
301.953462530629
301.95346247276
301.953462443802
301.953462445879
301.953462524964
301.953462801291
301.953463528848
301.953465295798
301.953469373891
301.953478432882
301.953497970377
301.953538969011
301.953622452644
301.953787163116
301.95410190815
301.95468423931
301.955728331856
301.957545159975
301.960621998791
301.965714900788
301.973992862138
301.987219071219
302.007785860069
302.037988986654
302.077480883099
302.116201476065
301.523420586323
301.480232226729
301.4416477255
301.413285867577
301.394376325093
301.38241408337
301.375047483788
301.370588934195
301.367938106946
301.366396484161
301.365523201015
301.365042855686
301.364786779161
301.36465456307
301.36458846729
301.364556475794
301.364541492485
301.364534678354
301.36453165274
301.364530335908
301.364529759967
301.36452949228
301.364529353223
301.364529274327
301.364529222284
301.364529184597
301.3645291617
301.36452915464
301.364529196311
301.364529384983
301.364529922884
301.364531274804
301.364534470187
301.364541656977
301.364557290539
301.364590353714
301.364658185139
301.364793029448
301.365052745245
301.365537476723
301.366415092792
301.367959332611
301.37060858991
301.375060638017
301.382424851374
301.394425437402
301.413498209803
301.442252761145
301.48143474754
301.524705637029
301.0429061024
301.001680614656
300.967727094534
300.943668928906
300.928039351201
300.918367350329
300.912528044592
300.909054859441
300.907019917331
300.905850551036
300.905194513699
300.904836453138
300.904646755865
300.904549315081
300.904500818626
300.904477444498
300.904466545448
300.904461622414
300.904459462874
300.904458541487
300.904458152525
300.904457981177
300.904457896812
300.904457850983
300.904457821977
300.904457799773
300.904457783189
300.904457773228
300.904457787855
300.904457900283
300.904458258698
300.90445919387
300.904461455807
300.90446659861
300.904477862667
300.904501832113
300.904551300028
300.904650240951
300.904842070777
300.905202812257
300.905861688474
300.907033135616
300.909068075288
300.912539542147
300.918384717305
300.928105165432
300.943907844555
300.968380515587
301.003034356052
301.044749407726
300.679697371859
300.644525876996
300.617340816029
300.598718390848
300.586925649391
300.579787184773
300.575562102218
300.573092081883
300.571665444052
300.570854911975
300.570404194937
300.570159859252
300.570031077445
300.569965187852
300.569932498474
300.56991678917
300.56990948828
300.569906208663
300.569904785231
300.569904189698
300.56990394784
300.569903848205
300.569903802599
300.56990377947
300.569903765797
300.569903754204
300.569903743083
300.569903734002
300.569903734783
300.569903792947
300.569904010194
300.569904606279
300.569906083161
300.569909475723
300.569916948846
300.569932929505
300.56996606352
300.570032655772
300.570162469346
300.57040815899
300.570860394883
300.571672168249
300.573099166093
300.575569550237
300.579803366732
300.586989305793
300.598941635595
300.617952593135
300.645848575056
300.6817611484
300.422404975797
300.395050577656
300.374979920137
300.36165231175
300.353419784981
300.348543786136
300.345713939864
300.344087545656
300.343161177822
300.342640546032
300.342353382052
300.342198630858
300.342117410278
300.342075978362
300.342055467935
300.342045630711
300.34204107017
300.342039031202
300.342038154997
300.342037795696
300.342037656215
300.342037603849
300.342037582329
300.342037572719
300.342037568052
300.342037563005
300.342037556051
300.342037548381
300.342037544432
300.342037570512
300.342037690812
300.342038044848
300.342038945065
300.342041034432
300.34204565996
300.342055589897
300.342076251242
300.342117930702
300.342199534273
300.342354815356
300.34264259902
300.343163732072
300.344090222321
300.345717259912
300.348554938935
300.353470099794
300.361833595755
300.375489662029
300.396201480043
300.424373405354
300.250757850928
300.231108991884
300.217313819812
300.208412882978
300.203044964977
300.199932735453
300.198161137733
300.197159915244
300.196597360243
300.196284468139
300.196113184436
300.196021362336
300.195973336071
300.195948890367
300.195936805644
300.195931016571
300.195928337741
300.19592714513
300.195926637563
300.195926433693
300.195926358833
300.195926334447
300.195926325748
300.195926322841
300.195926322975
300.195926321669
300.195926317634
300.195926311873
300.195926307202
300.195926316415
300.195926377817
300.195926575321
300.195927091782
300.195928303414
300.195930998121
300.195936800758
300.195948905277
300.195973389909
300.196021490475
300.196113429375
300.196284845082
300.196597767611
300.197160106193
300.198161519605
300.199938478071
300.203078917645
300.208544072589
300.217698482985
300.232016728586
300.252422801149
300.142462665105
300.129304528392
300.120412261289
300.114825453766
300.111532783437
300.109663017867
300.108618729345
300.108038251549
300.107716442519
300.107539245003
300.10744292709
300.107391532425
300.107364726619
300.10735110288
300.107344373019
300.107341151129
300.107339662322
300.107339002123
300.10733872385
300.10733861443
300.107338576532
300.107338566807
300.107338565529
300.107338565979
300.107338567025
300.107338566958
300.107338564805
300.107338560958
300.107338557103
300.107338558967
300.107338587886
300.107338691821
300.107338972448
300.107339638291
300.107341125642
300.107344335895
300.107351043844
300.107364637133
300.107391408044
300.107442762858
300.107539012775
300.107716027377
300.108037414208
300.108617591716
300.109664773219
300.111552620208
300.114911371947
300.120678485271
300.129961934038
300.143740390833
300.077605647135
300.069331570662
300.063924204133
300.060609732707
300.058698757221
300.057635275831
300.057052289297
300.056733496679
300.056559087621
300.056463991404
300.056412646122
300.056385362742
300.056371164889
300.056363955867
300.056360395501
300.056358691233
300.056357904541
300.056357557025
300.056357412012
300.056357356286
300.056357338842
300.056357336275
300.056357337155
300.056357338447
300.056357339537
300.056357339714
300.056357338657
300.056357336174
300.056357333261
300.056357332711
300.056357345414
300.056357397151
300.056357542332
300.05635789087
300.056358672749
300.056360363169
300.056363898439
300.056371069441
300.056385215573
300.056412428654
300.056463661948
300.056558531219
300.056732476896
300.057050705028
300.057634822152
300.058708706243
300.060661152126
300.064094798749
300.069773084286
300.078508635922
300.040611943016
300.035698143665
300.032580785402
300.03071331329
300.029658929897
300.029083507258
300.028773785314
300.028607145141
300.028517168479
300.028468580865
300.028442515119
300.028428716919
300.028421549577
300.028417912069
300.028416115159
300.028415254808
300.028414857992
300.028414683375
300.028414611305
300.028414584515
300.028414577281
300.028414577122
300.02841457822
300.02841457947
300.028414580322
300.028414580577
300.02841458007
300.028414578546
300.028414576577
300.028414575575
300.028414580701
300.028414605217
300.028414677048
300.028414851588
300.028415244758
300.028416095713
300.02841787557
300.028421486517
300.028428615934
300.02844235909
300.028468332024
300.028516729067
300.028606307842
300.028772347192
300.029082217797
300.029663014612
300.030741593253
300.032682748279
300.035975276699
300.041205848017
300.020454531396
300.017685253329
300.015974295876
300.014970955783
300.014415635806
300.014118241072
300.013961008995
300.013877761337
300.013833397496
300.013809669558
300.013797019384
300.013790346109
300.013786884695
300.013785128112
300.013784259827
300.013783843864
300.013783652132
300.013783568098
300.013783533834
300.013783521673
300.013783518927
300.013783519315
300.013783520227
300.013783521139
300.013783521718
300.013783521937
300.013783521698
300.013783520814
300.013783519601
300.013783518779
300.013783520643
300.013783531751
300.013783565877
300.013783649813
300.013783839642
300.013784250714
300.013785110011
300.013786852348
300.013790292761
300.013796933529
300.013809523625
300.013833118824
300.013877189529
300.013959933335
300.014116905588
300.014416767089
300.014985277999
300.016031474247
300.017848873311
300.020820972104
300.009933068827
300.008445987846
300.007548716953
300.007032861103
300.006752693035
300.006605357799
300.006528813838
300.006488927231
300.006467947907
300.006456834061
300.006450944963
300.006447848324
300.006446243867
300.006445429412
300.006445026439
300.006444833229
300.006444744218
300.00644470537
300.006444689739
300.00644468448
300.006444683555
300.006444683963
300.006444684581
300.006444685158
300.006444685512
300.006444685662
300.006444685549
300.006444685066
300.006444684373
300.006444683817
300.006444684405
300.006444689259
300.006444704881
300.006444743773
300.006444832064
300.006445023258
300.006445422433
300.006446230777
300.006447825931
300.006450906827
300.006456762638
300.006467794718
300.00648858079
300.006528102929
300.006604302833
300.006752611524
300.007039524812
300.007578943683
300.008537335865
300.010146510824
300.004658950696
300.003895374645
300.003444324139
300.003189735144
300.003053914467
300.002983727495
300.002947881478
300.002929494618
300.002919949752
300.002914941666
300.002912303895
300.002910921072
300.002910205173
300.002909841548
300.002909661409
300.002909574948
300.002909535133
300.002909517833
300.002909510969
300.002909508804
300.002909508553
300.002909508835
300.002909509205
300.002909509536
300.002909509736
300.002909509825
300.002909509772
300.002909509521
300.00290950915
300.002909508829
300.002909508979
300.002909511021
300.002909517928
300.002909535345
300.002909575021
300.002909660896
300.002909839855
300.00291020155
300.002910914355
300.002912290961
300.002914912432
300.002919874602
300.002929302711
300.002947452697
300.002983009216
300.003053494227
300.00319255787
300.003459444956
300.003943818474
300.004776923849
300.002114084921
300.001738019612
300.001520063443
300.001399122802
300.00133568161
300.001303442896
300.00128724946
300.001279071766
300.0012748821
300.001272704969
300.001271565119
300.00127096927
300.001270660963
300.001270504226
300.00127042646
300.001270389088
300.001270371884
300.001270364443
300.001270361541
300.001270360692
300.001270360648
300.001270360811
300.001270361014
300.001270361189
300.001270361295
300.001270361343
300.001270361319
300.001270361195
300.001270361007
300.001270360832
300.001270360855
300.001270361691
300.00127036465
300.001270372209
300.001270389481
300.001270426828
300.001270504472
300.001270660993
300.001270968836
300.001271562907
300.001272695633
300.001274848837
300.001278972853
300.001287009023
300.001303001383
300.001335278488
300.00140018707
300.001527242944
300.00176251832
300.002176227527
300.000929543598
300.000751404461
300.000649909022
300.000594473774
300.000565852421
300.000551539307
300.000544464982
300.000540947014
300.000539168241
300.000538252869
300.000537776478
300.000537528122
300.000537399658
300.000537334273
300.000537301773
300.000537286132
300.000537278933
300.000537275834
300.000537274647
300.000537274325
300.000537274331
300.00053727442
300.000537274524
300.000537274612
300.000537274664
300.000537274688
300.000537274677
300.000537274618
300.000537274528
300.00053727444
300.000537274433
300.000537274768
300.000537276001
300.000537279189
300.000537286491
300.000537302256
300.000537334937
300.000537400609
300.000537529431
300.000537777673
300.000538251305
300.000539154965
300.000540899008
300.000544338098
300.000551288403
300.000565564702
300.000594810458
300.000653151985
300.00076325897
300.000960854937
300.000396622626
300.000315263501
300.000269614196
300.00024504287
300.000232544175
300.000226388487
300.000223393139
300.000221925974
300.000221193834
300.000220820744
300.000220627733
300.000220527371
300.000220475462
300.000220449004
300.000220435826
300.000220429472
300.000220426547
300.000220425293
300.000220424823
300.000220424703
300.000220424715
300.00022042476
300.00022042481
300.000220424851
300.000220424875
300.000220424886
300.000220424882
300.000220424855
300.000220424814
300.000220424772
300.000220424764
300.000220424896
300.000220425397
300.000220426707
300.000220429712
300.000220436186
300.000220449561
300.000220476338
300.000220528694
300.000220629374
300.000220821466
300.000221189123
300.000221903834
300.000223329568
300.000226254756
300.000232367067
300.00024511479
300.000271009913
300.000320768426
300.00041176208
300.000164458898
300.000128553201
300.000108682597
300.000098130209
300.00009283676
300.000090267214
300.000089035541
300.000088441132
300.000088148371
300.000088000647
300.00008792468
300.000087885275
300.000087864892
300.000087854484
300.000087849287
300.000087846776
300.000087845619
300.000087845124
300.000087844941
300.000087844897
300.000087844905
300.000087844926
300.000087844948
300.000087844966
300.000087844976
300.000087844981
300.000087844979
300.000087844968
300.00008784495
300.000087844932
300.000087844927
300.000087844979
300.000087845179
300.000087845705
300.000087846912
300.000087849504
300.000087854838
300.000087865471
300.00008788618
300.000087925897
300.000088001627
300.000088146944
300.000088431355
300.000089005099
300.000090199711
300.000092737835
300.000098123665
300.00010925539
300.000131012948
300.000171503163
300.000066357007
300.000051014415
300.0000426281
300.000038229465
300.000036051409
300.000035008524
300.000034515793
300.000034281414
300.000034167466
300.000034110533
300.000034081429
300.000034066367
300.000034058572
300.000034054582
300.000034052585
300.000034051616
300.000034051168
300.000034050977
300.000034050906
300.000034050889
300.000034050892
300.000034050901
300.00003405091
300.000034050917
300.000034050921
300.000034050923
300.000034050922
300.000034050918
300.00003405091
300.000034050903
300.000034050902
300.000034050923
300.000034051002
300.000034051209
300.000034051684
300.000034052698
300.000034054776
300.000034058896
300.000034066885
300.000034082155
300.000034111233
300.000034167141
300.00003427725
300.000034501784
300.000034976028
300.00003600003
300.000038209457
300.000042852213
300.000052074449
300.000069518994
300.000026086186
300.000019727001
300.000016289574
300.000014507117
300.000013635083
300.000013222893
300.000013030809
300.000012940713
300.000012897467
300.00001287607
300.000012865196
300.000012859579
300.000012856669
300.000012855175
300.000012854424
300.000012854057
300.000012853886
300.000012853812
300.000012853784
300.000012853777
300.000012853777
300.00001285378
300.000012853782
300.000012853785
300.000012853786
300.000012853787
300.000012853786
300.000012853785
300.000012853782
300.00001285378
300.00001285378
300.000012853789
300.000012853821
300.000012853903
300.000012854086
300.000012854476
300.000012855268
300.00001285683
300.000012859843
300.000012865576
300.00001287647
300.000012897445
300.00001293899
300.000013024586
300.000013207891
300.000013609917
300.000014491361
300.000016373054
300.000020168524
300.000027458488
300.000010003325
300.000007442433
300.00000607203
300.000005368843
300.000005028646
300.000004869775
300.000004796701
300.000004762885
300.000004746854
300.000004738998
300.000004735027
300.000004732979
300.000004731915
300.000004731366
300.000004731087
300.00000473095
300.000004730884
300.000004730855
300.000004730842
300.000004730838
300.000004730837
300.000004730837
300.000004730837
300.000004730837
300.000004730837
300.000004730837
300.000004730837
300.000004730837
300.000004730836
300.000004730836
300.000004730837
300.000004730842
300.000004730856
300.000004730888
300.000004730959
300.000004731107
300.000004731405
300.000004731987
300.0000047331
300.000004735206
300.000004739197
300.000004746884
300.000004762185
300.000004794019
300.000004863104
300.000005016913
300.000005359368
300.000006101535
300.000007620513
300.000010580323
300.000003746114
300.000002742595
300.000002210489
300.000001940089
300.000001810617
300.000001750831
300.000001723668
300.000001711258
300.000001705444
300.00000170262
300.000001701198
300.000001700465
300.000001700081
300.000001699881
300.000001699778
300.000001699725
300.000001699699
300.000001699686
300.000001699679
300.000001699676
300.000001699674
300.000001699673
300.000001699672
300.000001699671
300.000001699671
300.000001699671
300.000001699671
300.000001699671
300.000001699671
300.000001699672
300.000001699673
300.000001699676
300.000001699683
300.000001699697
300.000001699726
300.000001699783
300.000001699894
300.000001700108
300.000001700514
300.000001701274
300.000001702707
300.000001705465
300.000001710975
300.000001722542
300.000001747963
300.000001805376
300.000001935103
300.000002220322
300.000002812265
300.000003981575
300.000001371533
300.000000988352
300.000000786897
300.000000685448
300.000000637337
300.00000061535
300.000000605473
300.000000601013
300.000000598945
300.000000597948
300.000000597446
300.000000597186
300.000000597048
300.000000596973
300.000000596933
300.000000596912
300.000000596899
300.000000596892
300.000000596888
300.000000596885
300.000000596882
300.000000596881
300.000000596879
300.000000596879
300.000000596878
300.000000596878
300.000000596878
300.000000596878
300.000000596879
300.00000059688
300.000000596881
300.000000596884
300.000000596888
300.000000596895
300.000000596908
300.000000596931
300.000000596974
300.000000597054
300.000000597201
300.000000597473
300.00000059798
300.000000598952
300.000000600896
300.000000605009
300.000000614152
300.000000635082
300.00000068304
300.000000789949
300.000001014833
300.000001464944
300.00000049152
300.000000348774
300.000000274345
300.000000237195
300.000000219735
300.000000211831
300.000000208314
300.000000206741
300.000000206017
300.000000205668
300.000000205491
300.000000205397
300.000000205345
300.000000205316
300.000000205298
300.000000205288
300.00000020528
300.000000205275
300.000000205272
300.000000205269
300.000000205266
300.000000205264
300.000000205263
300.000000205262
300.000000205261
300.000000205261
300.000000205261
300.000000205261
300.000000205262
300.000000205263
300.000000205265
300.000000205267
300.000000205271
300.000000205275
300.000000205282
300.000000205293
300.000000205311
300.000000205343
300.000000205398
300.000000205496
300.000000205675
300.000000206014
300.000000206689
300.000000208123
300.000000211341
300.000000218796
300.000000236104
300.000000275207
300.000000358566
300.000000527599
300.00000017269
300.000000120755
300.000000093921
300.000000080656
300.000000074477
300.000000071701
300.000000070475
300.000000069928
300.000000069676
300.000000069552
300.000000069488
300.000000069451
300.000000069429
300.000000069415
300.000000069405
300.000000069398
300.000000069393
300.000000069388
300.000000069385
300.000000069382
300.00000006938
300.000000069378
300.000000069376
300.000000069375
300.000000069374
300.000000069374
300.000000069374
300.000000069375
300.000000069375
300.000000069377
300.000000069378
300.000000069381
300.000000069384
300.000000069387
300.000000069392
300.000000069399
300.000000069408
300.000000069423
300.000000069446
300.000000069483
300.000000069549
300.000000069668
300.000000069901
300.000000070394
300.000000071503
300.000000074095
300.000000080185
300.000000094129
300.000000124283
300.000000186276
300.000000059649
300.000000041182
300.000000031761
300.000000027167
300.000000025048
300.000000024101
300.000000023681
300.000000023492
300.000000023402
300.000000023356
300.000000023329
300.000000023312
300.0000000233
300.000000023291
300.000000023284
300.000000023278
300.000000023273
300.000000023269
300.000000023266
300.000000023263
300.000000023261
300.000000023259
300.000000023257
300.000000023256
300.000000023256
300.000000023255
300.000000023255
300.000000023256
300.000000023257
300.000000023258
300.00000002326
300.000000023262
300.000000023265
300.000000023268
300.000000023272
300.000000023277
300.000000023284
300.000000023292
300.000000023304
300.000000023321
300.000000023348
300.000000023392
300.000000023475
300.000000023644
300.000000024019
300.000000024895
300.000000026972
300.000000031797
300.000000042423
300.000000064643
300.000000020392
300.000000013975
300.000000010782
300.000000009266
300.000000008578
300.000000008269
300.000000008129
300.000000008061
300.000000008026
300.000000008005
300.000000007991
300.00000000798
300.000000007972
300.000000007965
300.000000007958
300.000000007953
300.000000007949
300.000000007945
300.000000007942
300.000000007939
300.000000007936
300.000000007934
300.000000007933
300.000000007932
300.000000007931
300.000000007931
300.000000007931
300.000000007931
300.000000007932
300.000000007933
300.000000007935
300.000000007937
300.00000000794
300.000000007943
300.000000007947
300.000000007952
300.000000007957
300.000000007964
300.000000007972
300.000000007982
300.000000007996
300.000000008015
300.000000008048
300.000000008107
300.000000008232
300.000000008516
300.000000009188
300.000000010782
300.000000014402
300.000000022186
300.000000007027
300.000000004854
300.000000003841
300.000000003395
300.0000000032
300.000000003109
300.000000003063
300.000000003036
300.000000003019
300.000000003006
300.000000002996
300.000000002988
300.00000000298
300.000000002974
300.000000002968
300.000000002963
300.000000002958
300.000000002955
300.000000002951
300.000000002949
300.000000002946
300.000000002944
300.000000002943
300.000000002942
300.000000002941
300.000000002941
300.000000002941
300.000000002941
300.000000002942
300.000000002944
300.000000002945
300.000000002947
300.00000000295
300.000000002953
300.000000002957
300.000000002961
300.000000002966
300.000000002972
300.000000002979
300.000000002987
300.000000002996
300.000000003008
300.000000003024
300.000000003048
300.00000000309
300.000000003173
300.000000003364
300.000000003837
300.000000004999
300.000000007657
300.000000002564
300.000000001855
300.000000001588
300.000000001506
300.000000001478
300.00000000146
300.000000001444
300.000000001431
300.000000001419
300.000000001409
300.0000000014
300.000000001392
300.000000001385
300.000000001379
300.000000001373
300.000000001369
300.000000001364
300.000000001361
300.000000001357
300.000000001355
300.000000001352
300.000000001351
300.000000001349
300.000000001348
300.000000001347
300.000000001347
300.000000001347
300.000000001348
300.000000001348
300.00000000135
300.000000001351
300.000000001353
300.000000001356
300.000000001359
300.000000001363
300.000000001367
300.000000001372
300.000000001377
300.000000001384
300.000000001391
300.000000001399
300.000000001409
300.00000000142
300.000000001432
300.000000001447
300.000000001464
300.000000001494
300.000000001587
300.000000001904
300.000000002781
300.000000001103
300.000000000888
300.000000000872
300.000000000911
300.000000000937
300.000000000942
300.000000000937
300.000000000927
300.000000000917
300.000000000908
300.000000000899
300.000000000891
300.000000000884
300.000000000878
300.000000000873
300.000000000868
300.000000000864
300.00000000086
300.000000000857
300.000000000854
300.000000000852
300.00000000085
300.000000000849
300.000000000848
300.000000000847
300.000000000847
300.000000000847
300.000000000848
300.000000000848
300.00000000085
300.000000000851
300.000000000853
300.000000000856
300.000000000859
300.000000000862
300.000000000867
300.000000000871
300.000000000877
300.000000000883
300.00000000089
300.000000000898
300.000000000907
300.000000000916
300.000000000926
300.000000000932
300.000000000929
300.000000000907
300.000000000873
300.000000000906
300.000000001176
300.000000000635
300.000000000585
300.000000000651
300.000000000728
300.000000000771
300.000000000783
300.00000000078
300.000000000771
300.000000000762
300.000000000752
300.000000000744
300.000000000736
300.000000000729
300.000000000723
300.000000000718
300.000000000713
300.000000000709
300.000000000705
300.000000000702
300.0000000007
300.000000000697
300.000000000696
300.000000000694
300.000000000693
300.000000000693
300.000000000692
300.000000000693
300.000000000693
300.000000000694
300.000000000695
300.000000000697
300.000000000699
300.000000000701
300.000000000704
300.000000000707
300.000000000712
300.000000000716
300.000000000722
300.000000000728
300.000000000735
300.000000000743
300.000000000752
300.000000000761
300.00000000077
300.000000000774
300.000000000765
300.000000000727
300.000000000653
300.000000000592
300.000000000659
300.000000000491
300.000000000494
300.000000000586
300.000000000675
300.000000000722
300.000000000735
300.000000000732
300.000000000723
300.000000000713
300.000000000704
300.000000000695
300.000000000687
300.000000000681
300.000000000675
300.000000000669
300.000000000665
300.000000000661
300.000000000657
300.000000000654
300.000000000652
300.00000000065
300.000000000648
300.000000000647
300.000000000646
300.000000000645
300.000000000645
300.000000000645
300.000000000646
300.000000000646
300.000000000647
300.000000000649
300.000000000651
300.000000000653
300.000000000656
300.00000000066
300.000000000664
300.000000000668
300.000000000674
300.00000000068
300.000000000687
300.000000000695
300.000000000704
300.000000000713
300.000000000722
300.000000000727
300.000000000716
300.000000000674
300.000000000589
300.000000000499
300.000000000499
300.000000000451
300.000000000471
300.00000000057
300.000000000661
300.000000000708
300.000000000721
300.000000000717
300.000000000708
300.000000000697
300.000000000688
300.000000000679
300.000000000671
300.000000000665
300.000000000659
300.000000000654
300.000000000649
300.000000000645
300.000000000642
300.000000000639
300.000000000637
300.000000000635
300.000000000633
300.000000000632
300.000000000631
300.00000000063
300.00000000063
300.00000000063
300.000000000631
300.000000000631
300.000000000632
300.000000000634
300.000000000636
300.000000000638
300.000000000641
300.000000000644
300.000000000648
300.000000000653
300.000000000658
300.000000000664
300.000000000671
300.000000000679
300.000000000688
300.000000000698
300.000000000708
300.000000000713
300.000000000703
300.000000000661
300.000000000574
300.000000000475
300.000000000454
300.000000000445
300.000000000471
300.00000000057
300.00000000066
300.000000000705
300.000000000717
300.000000000712
300.000000000702
300.000000000691
300.000000000681
300.000000000673
300.000000000665
300.000000000658
300.000000000653
300.000000000648
300.000000000643
300.000000000639
300.000000000636
300.000000000633
300.000000000631
300.000000000629
300.000000000628
300.000000000627
300.000000000626
300.000000000625
300.000000000625
300.000000000625
300.000000000625
300.000000000626
300.000000000627
300.000000000629
300.00000000063
300.000000000633
300.000000000635