/*--------------------------------*- C++ -*----------------------------------*\
  =========                 |
  \\      /  F ield         | OpenFOAM: The Open Source CFD Toolbox
   \\    /   O peration     | Website:  https://openfoam.org
    \\  /    A nd           | Version:  10
     \\/     M anipulation  |
\*---------------------------------------------------------------------------*/
FoamFile
{
    format      ascii;
    class       volVectorField;
    location    "9.4";
    object      U;
}
// * * * * * * * * * * * * * * * * * * * * * * * * * * * * * * * * * * * * * //

dimensions      [0 1 -1 0 0 0 0];

internalField   nonuniform List<vector> 
2500
(
(-1.10157416717658e-06 -1.09853438340071e-06 1.27075095403914e-25)
(-3.08020128754646e-06 -1.55106855690233e-06 1.76769687328647e-24)
(-3.64043844910224e-06 -1.746266468827e-06 1.41550652597152e-25)
(-3.25101510084817e-06 -1.85249105972587e-06 -1.48833235106701e-25)
(-2.49799470238344e-06 -1.87746698898681e-06 -7.11460067605208e-25)
(-1.80060387060404e-06 -1.86976498415121e-06 -7.2425223280599e-25)
(-1.25366107332652e-06 -1.85240828865092e-06 -3.18519300276308e-25)
(-8.64610770955582e-07 -1.83625594378498e-06 -3.01238854036398e-25)
(-5.94520186757024e-07 -1.82320940493754e-06 -4.43263262126353e-25)
(-4.10714752753569e-07 -1.81355079821525e-06 1.60519027050464e-24)
(-2.85514684613698e-07 -1.80663207425151e-06 1.2161551507844e-24)
(-2.00079920405875e-07 -1.80187380334238e-06 2.96609393004538e-24)
(-1.41131630956365e-07 -1.79869228914411e-06 2.55330081978977e-24)
(-9.98520297890571e-08 -1.79662984517042e-06 9.90280702402915e-25)
(-7.0358422364008e-08 -1.79531250203095e-06 2.26368609746655e-24)
(-4.87993815014089e-08 -1.79449037422721e-06 6.17401343513368e-25)
(-3.26639559913188e-08 -1.79397469161875e-06 2.52479831956421e-24)
(-2.02991882372167e-08 -1.79364741337367e-06 1.83671951262412e-24)
(-1.06079436050596e-08 -1.79344774616834e-06 3.8566400242249e-25)
(-2.84680032089682e-09 -1.79331634689059e-06 1.67608929938851e-24)
(3.50557307126652e-09 -1.79322954090894e-06 -5.9332231199125e-26)
(8.81939009576848e-09 -1.7931813510534e-06 -2.11584246451056e-25)
(1.33808358892601e-08 -1.79314241044386e-06 2.5158517659639e-24)
(1.74214532697152e-08 -1.79312559181436e-06 1.96515313344444e-25)
(2.11240363148728e-08 -1.79312762781613e-06 -1.40671417243268e-25)
(2.4658540532628e-08 -1.7931346461763e-06 2.66605757338154e-24)
(2.81965289876883e-08 -1.79315194836148e-06 1.21941955266645e-25)
(3.19084099762312e-08 -1.79318240863346e-06 7.67335551084835e-25)
(3.59786960903016e-08 -1.79323122766351e-06 2.42057228926069e-24)
(4.06370004927447e-08 -1.79329927074827e-06 -9.33541925119329e-26)
(4.61670898289699e-08 -1.79340218755497e-06 1.43950535750332e-25)
(5.29383690883389e-08 -1.79355710950491e-06 -1.3613264027818e-25)
(6.14694418938644e-08 -1.79378191217403e-06 6.23521442357055e-25)
(7.25007820251688e-08 -1.79413053906592e-06 6.28153995668848e-25)
(8.71359660380897e-08 -1.79466997080871e-06 -3.18988079393606e-26)
(1.07033673227535e-07 -1.79552427877645e-06 2.00679429287843e-24)
(1.34708427426863e-07 -1.79686354663684e-06 -2.38063333402814e-24)
(1.74018952588094e-07 -1.79894437302473e-06 -2.02940391640285e-25)
(2.30834444958839e-07 -1.80212958126701e-06 2.35644978304221e-26)
(3.13954519315773e-07 -1.80687691572984e-06 -1.15473532609274e-24)
(4.36651943365342e-07 -1.81376338732244e-06 -3.10859615550823e-24)
(6.17803526803364e-07 -1.8233790390108e-06 -3.34636614834204e-24)
(8.85265763399857e-07 -1.83643018951689e-06 -1.87334609854704e-24)
(1.27245181773685e-06 -1.85273664658728e-06 -3.81833487926342e-24)
(1.81987468224396e-06 -1.87056054678455e-06 -3.99148640317038e-24)
(2.52304983220696e-06 -1.87907167147641e-06 -1.99554640606266e-24)
(3.28793386680125e-06 -1.85447317983315e-06 -4.05287708527105e-24)
(3.68851964104413e-06 -1.7464378733658e-06 -3.30203669868781e-24)
(3.11270786185166e-06 -1.546962527924e-06 -1.50430222611991e-24)
(1.10488802117275e-06 -1.09762775836162e-06 -1.84925621762853e-24)
(-1.64791652213355e-06 -9.96671311040177e-07 -1.1559799280992e-25)
(-5.59964575105179e-06 -2.09855869540844e-06 -2.00836235252341e-25)
(-6.83698601871275e-06 -3.28160923194252e-06 -1.39833479784641e-25)
(-6.25901782794092e-06 -3.95138488889924e-06 -5.0443675120412e-25)
(-4.91091717172249e-06 -4.10782497859778e-06 -2.25219622965805e-24)
(-3.60631216084087e-06 -4.02157934835443e-06 -2.11479980272242e-24)
(-2.55609512032928e-06 -3.8746333821488e-06 -8.89997508553423e-25)
(-1.79432503209958e-06 -3.74150647054851e-06 -8.88206601468875e-25)
(-1.25764966868073e-06 -3.639746064537e-06 -1.851968237324e-24)
(-8.86976510208653e-07 -3.56719862072679e-06 -4.59789513384653e-26)
(-6.30489859980377e-07 -3.51717443459064e-06 2.31901105378971e-24)
(-4.52115981884484e-07 -3.48336312223658e-06 2.34783586571657e-24)
(-3.26310506435414e-07 -3.46079606074622e-06 1.18070992683259e-24)
(-2.35995571356416e-07 -3.4458328647284e-06 1.65256244290633e-24)
(-1.69751606856327e-07 -3.43591319725588e-06 5.60618189447963e-25)
(-1.2003768902365e-07 -3.42928726552045e-06 6.19491300690553e-25)
(-8.18647904042618e-08 -3.42480224134582e-06 1.32812039048376e-24)
(-5.19183885901691e-08 -3.42170867140403e-06 3.39669994957425e-25)
(-2.79414061009517e-08 -3.41954572560181e-06 -4.37594482635536e-27)
(-8.36129752789236e-09 -3.41799501265609e-06 -4.51799167294882e-25)
(7.93102891131388e-09 -3.41687629874145e-06 -7.40040486375962e-25)
(2.17739891069042e-08 -3.41607736135845e-06 -1.29479309741094e-24)
(3.38107129585839e-08 -3.41551149112504e-06 7.52466395513628e-25)
(4.45639311298758e-08 -3.41513600212537e-06 -9.86418740352069e-26)
(5.44924131093007e-08 -3.41494314647893e-06 -1.16723052376516e-24)
(6.39994672076395e-08 -3.41489830479995e-06 5.41681154912233e-25)
(7.34841760036012e-08 -3.41501054381979e-06 -3.53226494386628e-25)
(8.33551367372126e-08 -3.41529066131794e-06 1.68013115086181e-24)
(9.40576395872304e-08 -3.41576686899889e-06 1.17005672263121e-24)
(1.06117794402707e-07 -3.4164815624255e-06 -8.66142305567325e-25)
(1.20172820320046e-07 -3.41752153459511e-06 4.54249039402821e-25)
(1.37056653957258e-07 -3.41898813064314e-06 -4.42852660914229e-25)
(1.57879780071092e-07 -3.42108104164369e-06 1.79816235025338e-24)
(1.84194911921198e-07 -3.42409794682793e-06 1.73872046383347e-24)
(2.18266243642417e-07 -3.42851467719595e-06 -6.46350939750436e-25)
(2.6343000801426e-07 -3.43508762966211e-06 3.78291883951524e-25)
(3.2467557379158e-07 -3.44495584674126e-06 -9.40936688517339e-25)
(4.09552388386669e-07 -3.45985827423733e-06 -2.58554425826774e-26)
(5.29478433107495e-07 -3.48233584751852e-06 3.99231723412372e-25)
(7.01522525234272e-07 -3.516027184872e-06 -2.36194752049258e-24)
(9.51240211998105e-07 -3.56591449303417e-06 -3.6184373110468e-24)
(1.31483375957458e-06 -3.63840309416149e-06 -3.66573643203801e-24)
(1.84454640083589e-06 -3.74051976454936e-06 -3.8904420189898e-24)
(2.60094871859623e-06 -3.87511232205041e-06 -3.8818764210949e-24)
(3.65053324332069e-06 -4.02568396818427e-06 -4.14581052951325e-24)
(4.96491411364063e-06 -4.1175274234372e-06 -4.0401801583385e-24)
(6.33515515073825e-06 -3.96354839566837e-06 -3.95245131817287e-24)
(6.93558886923576e-06 -3.28125834885987e-06 -3.709414131427e-24)
(5.67328870819539e-06 -2.07374909743424e-06 -2.91455353757799e-24)
(1.65953360449453e-06 -9.78563964551432e-07 -1.6113409491373e-24)
(-1.2611330826972e-06 1.33435667494539e-06 -4.45893768426753e-25)
(-5.55860373111871e-06 -5.08592123618773e-08 -2.06487486521102e-24)
(-6.99021335705e-06 -2.36830176201551e-06 -4.91418816691911e-25)
(-6.58750844239961e-06 -3.70128880212264e-06 -6.50953881987743e-25)
(-5.30140530157362e-06 -4.02601895756374e-06 -2.94157674043232e-24)
(-3.99415220477673e-06 -3.85006763859316e-06 -3.51928622444702e-24)
(-2.90528466981836e-06 -3.54594164331994e-06 -1.16180387446842e-24)
(-2.09485519474596e-06 -3.26820636916237e-06 -1.21767970436882e-24)
(-1.50996459048689e-06 -3.05620080652141e-06 -3.4092879404774e-24)
(-1.09609872542434e-06 -2.90557299500071e-06 -2.3388878099238e-24)
(-8.02238007947873e-07 -2.80212121597105e-06 2.89855675177922e-24)
(-5.92087585431222e-07 -2.73221515732934e-06 1.05290669211902e-24)
(-4.39445019487765e-07 -2.68531453046844e-06 -1.08279208181073e-24)
(-3.26541969614409e-07 -2.65384599858961e-06 1.96179363702321e-24)
(-2.41298881498428e-07 -2.63260439991664e-06 -1.58492731808824e-24)
(-1.7558149635714e-07 -2.61807843444763e-06 9.30990735536938e-26)
(-1.23889384608928e-07 -2.60797863172673e-06 -5.00337983123829e-26)
(-8.24525171802929e-08 -2.60082317243147e-06 -2.09936963162054e-24)
(-4.86412213281503e-08 -2.59565372020633e-06 -7.41820629610035e-25)
(-2.05698958438738e-08 -2.59187086949916e-06 -2.75151484627584e-24)
(3.14280210503345e-09 -2.58908788100399e-06 -1.3741294499273e-24)
(2.35594176515234e-08 -2.58703775421394e-06 -2.7138680908845e-24)
(4.15257517693247e-08 -2.58558471636347e-06 -6.70847409017944e-25)
(5.77358486986998e-08 -2.5846032992441e-06 -5.27764895964668e-25)
(7.28023212816319e-08 -2.58405156209105e-06 -2.56806643717535e-24)
(8.72865112047744e-08 -2.58389637669921e-06 -9.96443822027215e-25)
(1.01731216293459e-07 -2.58413942194228e-06 -1.30994691776845e-24)
(1.16698105878733e-07 -2.58480592577489e-06 2.36299132992853e-24)
(1.32786472202865e-07 -2.58595755078595e-06 6.51198067964211e-26)
(1.50692547086027e-07 -2.5876922073989e-06 -2.07126516734401e-24)
(1.71258157945069e-07 -2.59017647397826e-06 1.12438329698703e-24)
(1.95531803166047e-07 -2.59364494567277e-06 -1.07474773554733e-24)
(2.24887632454387e-07 -2.59850579440626e-06 2.99254394076801e-24)
(2.61199604991258e-07 -2.60536360121183e-06 2.7510345405411e-24)
(3.07096619206227e-07 -2.61517839401675e-06 -1.66180006004453e-24)
(3.66358839117205e-07 -2.62943403328163e-06 -6.76379095533702e-25)
(4.44491532669868e-07 -2.65042880665087e-06 1.49105394389583e-25)
(5.49644341873678e-07 -2.68164495019834e-06 3.18515415545438e-25)
(6.93903983443015e-07 -2.72828211037845e-06 1.17878072665906e-24)
(8.95059877568369e-07 -2.79793276323272e-06 -3.74081428213468e-24)
(1.17935829754481e-06 -2.90115150727701e-06 -2.7957431805916e-24)
(1.58330730013185e-06 -3.05180645795375e-06 -2.89575678366775e-24)
(2.15844926724063e-06 -3.26475263101472e-06 -5.1480565538539e-24)
(2.96090457501574e-06 -3.54573567056523e-06 -3.05896290791889e-24)
(4.04695772266738e-06 -3.85748335069604e-06 -3.41267743921459e-24)
(5.36279110718015e-06 -4.04512228331078e-06 -5.49469755243386e-24)
(6.67207383110102e-06 -3.72612475523537e-06 -3.20173474433455e-24)
(7.10200892050691e-06 -2.36934922372562e-06 -2.89213644557944e-24)
(5.65332399035255e-06 -2.43595181111297e-09 -4.53901201646042e-24)
(1.28312345125275e-06 1.38235891219742e-06 -1.15626522880521e-24)
(-6.76829243639173e-07 3.6353229078509e-06 -4.99938887775562e-25)
(-4.09558868643609e-06 2.36097998581104e-06 -2.71918273260302e-24)
(-5.40222308570444e-06 -9.33688644390322e-07 -4.6759722958566e-25)
(-5.33761984815564e-06 -2.88780624511191e-06 -3.60012774907759e-25)
(-4.47894156058315e-06 -3.42096357284869e-06 -1.49584483664237e-24)
(-3.51998939721058e-06 -3.21262673213431e-06 -2.16513681827602e-24)
(-2.66905656127348e-06 -2.80002073855979e-06 -8.98027079154989e-25)
(-2.0055117273997e-06 -2.41109767604334e-06 -9.79368929788043e-25)
(-1.5050580782982e-06 -2.10983699606508e-06 -2.539726546959e-24)
(-1.13582008875478e-06 -1.89349201165015e-06 -2.61423802609821e-24)
(-8.62508784299991e-07 -1.74349101896218e-06 1.70394271485305e-24)
(-6.5890980952778e-07 -1.64098133736614e-06 -6.40482052254355e-25)
(-5.05127233517242e-07 -1.57125281259427e-06 -2.05361080569103e-24)
(-3.87185396534067e-07 -1.52367595567623e-06 8.53801535107248e-25)
(-2.9521351420916e-07 -1.49092246175282e-06 -1.93581652142573e-24)
(-2.22292926283237e-07 -1.4680574995858e-06 -1.96780993125519e-25)
(-1.6354277843294e-07 -1.4518166175211e-06 -1.47707337031366e-24)
(-1.15474966613136e-07 -1.4400740373051e-06 -2.53303737931949e-24)
(-7.55613329844583e-08 -1.43143610886048e-06 -8.24021322100246e-25)
(-4.19132739608477e-08 -1.42501182340671e-06 -2.90695417024877e-24)
(-1.30864074172181e-08 -1.42021657416649e-06 -1.22861758498321e-24)
(1.2046743274135e-08 -1.41665692794537e-06 -1.88725728275557e-24)
(3.44104263483284e-08 -1.41409874385089e-06 -1.64532302865946e-24)
(5.47909338565243e-08 -1.41237018910693e-06 -5.24646938369221e-25)
(7.38797580645286e-08 -1.4113726992363e-06 -1.69414795224816e-24)
(9.23180869686367e-08 -1.41107809628678e-06 -1.87622725683807e-24)
(1.1073172489023e-07 -1.4114728576565e-06 -8.59009019039417e-25)
(1.29759491553553e-07 -1.41260710636847e-06 1.36434130317008e-24)
(1.50086002522691e-07 -1.41457723562515e-06 -1.16600357303768e-24)
(1.72490098565374e-07 -1.41752976316501e-06 -1.48939201460521e-24)
(1.97887950509186e-07 -1.42172748411709e-06 3.57691219236791e-25)
(2.2740381854534e-07 -1.42755057902059e-06 -6.09190225102803e-25)
(2.62459562722835e-07 -1.4355818383346e-06 1.96674078947388e-24)
(3.0492974669874e-07 -1.44672782706436e-06 1.87363503749894e-24)
(3.57347517291154e-07 -1.46237938067111e-06 -1.14340579336967e-24)
(4.23196732119725e-07 -1.48468496694405e-06 -1.50245906113389e-24)
(5.07354650623127e-07 -1.51689896119481e-06 1.28162695355359e-24)
(6.16753025285719e-07 -1.56394142168158e-06 4.12066944888152e-25)
(7.61271013105219e-07 -1.63314650878788e-06 4.20720548502414e-25)
(9.54943405333176e-07 -1.73517220545429e-06 -3.06130866520612e-24)
(1.21772556013467e-06 -1.88481602222984e-06 -9.79240589131897e-25)
(1.57605040128195e-06 -2.10126143252622e-06 -9.06463130516211e-25)
(2.06569626843981e-06 -2.40404204532287e-06 -3.98002755259344e-24)
(2.71988323137744e-06 -2.79799683650174e-06 -1.19593019794549e-24)
(3.56570459619264e-06 -3.22218045229362e-06 -1.68307131358954e-24)
(4.52934180879856e-06 -3.44850565583004e-06 -4.50732497268768e-24)
(5.40680674726666e-06 -2.92581653836442e-06 -1.50092073208626e-24)
(5.4982272512601e-06 -9.40395560068597e-07 -1.1344987372673e-24)
(4.18943052495323e-06 2.42733181797219e-06 -3.77203879310724e-24)
(7.06013786330497e-07 3.71257612580261e-06 -6.98667066063228e-26)
(-1.34010189893894e-07 5.376363073121e-06 -2.5439332057873e-25)
(-2.16933187092413e-06 4.43992790750852e-06 -1.51736952476677e-24)
(-3.19804192026174e-06 5.30364917744925e-07 -7.8521120296437e-26)
(-3.48117619989936e-06 -1.89405062165486e-06 7.54664929630051e-26)
(-3.16265931895333e-06 -2.64825330198138e-06 2.26054358916109e-26)
(-2.67418731646677e-06 -2.48293739330162e-06 -1.19744134880111e-24)
(-2.16584669273097e-06 -2.03886065236128e-06 -4.42750211187083e-25)
(-1.72744186738587e-06 -1.59749640407416e-06 -5.04857951290676e-25)
(-1.36740452858061e-06 -1.24646060509644e-06 -1.55609890327519e-24)
(-1.08192517205606e-06 -9.89232594703216e-07 -1.34546178251033e-24)
(-8.56614732719953e-07 -8.0763242544136e-07 1.40359314790504e-24)
(-6.79061526154541e-07 -6.81206948376375e-07 2.03522600324633e-25)
(-5.38257426249617e-07 -5.93507188620239e-07 -7.43057973466031e-25)
(-4.25713105774858e-07 -5.32421174951441e-07 6.95487748154485e-25)
(-3.34888289182077e-07 -4.89466955112269e-07 -9.27833808755741e-25)
(-2.60821557734225e-07 -4.58848201821214e-07 1.11589750215604e-25)
(-1.99759035779058e-07 -4.36670192808927e-07 -3.4088497598887e-25)
(-1.48834426428536e-07 -4.20348753820398e-07 -1.00957684869675e-24)
(-1.05856318629182e-07 -4.08173134010324e-07 -2.29500540185145e-25)
(-6.91114332013783e-08 -3.99000995136189e-07 -1.38965427991855e-24)
(-3.72318103116172e-08 -3.92085204986669e-07 -5.80391654264241e-25)
(-9.11436778692959e-09 -3.86926408500441e-07 -1.03303614986884e-24)
(1.61712490963703e-08 -3.8318519612999e-07 -7.01045480565533e-25)
(3.94326736529567e-08 -3.80650519506014e-07 -1.29947800218406e-25)
(6.13790066304865e-08 -3.79193018591575e-07 -8.72321560573572e-25)
(8.26863113535166e-08 -3.78754834508237e-07 -8.64621657735488e-25)
(1.04013876329178e-07 -3.79333030005697e-07 -4.54347605587615e-25)
(1.26026722669043e-07 -3.80989556851939e-07 9.39456581018112e-25)
(1.49440878484891e-07 -3.8384781182435e-07 -5.42680446692592e-25)
(1.75047030526689e-07 -3.88120194143352e-07 -9.64947513575646e-25)
(2.03763179714772e-07 -3.94146915222741e-07 1.77289662008809e-25)
(2.36690393994137e-07 -4.02418946363588e-07 -5.43316213019175e-25)
(2.75174386111257e-07 -4.13693011866527e-07 1.24927053530616e-24)
(3.2091835594273e-07 -4.29105699397326e-07 1.2256818699467e-24)
(3.76101003326552e-07 -4.50387939511422e-07 -7.74909859473807e-25)
(4.43575391851058e-07 -4.80134440952474e-07 -8.07345516198546e-25)
(5.27093491405708e-07 -5.2223191749442e-07 5.91808382502287e-25)
(6.31613986268996e-07 -5.82477082258126e-07 2.25292528294449e-25)
(7.63685040079853e-07 -6.69354908730877e-07 6.08945984380432e-26)
(9.31842215336355e-07 -7.95030655797177e-07 -3.05117901286965e-24)
(1.14714922938743e-06 -9.7610060957043e-07 -1.09389065303835e-24)
(1.42220687633327e-06 -1.23344054818803e-06 -1.09093965150921e-24)
(1.77169783565951e-06 -1.58642411914109e-06 -3.58411849758184e-24)
(2.20032051140107e-06 -2.03418422945971e-06 -1.21708577704413e-24)
(2.70153047972859e-06 -2.49300997495076e-06 -1.53357185109132e-24)
(3.18977331022919e-06 -2.6817677919072e-06 -4.3173412464152e-24)
(3.51990363659158e-06 -1.94351795753339e-06 -1.40514016418708e-24)
(3.25918936761518e-06 5.14477882043243e-07 -1.15461956460736e-24)
(2.24257892353711e-06 4.51508072042333e-06 -3.74654128152016e-24)
(1.6332668239541e-07 5.47643239671933e-06 -4.17054368885031e-25)
(2.55482389507166e-07 6.39383599583763e-06 1.61627547124131e-26)
(-4.21265280894308e-07 5.88969172232152e-06 -1.01158971607299e-24)
(-1.14046502856043e-06 1.76257536358989e-06 3.11656145535338e-25)
(-1.68316577840604e-06 -9.39831424157649e-07 2.96207695974119e-25)
(-1.84211336585804e-06 -1.89085160730802e-06 -4.32600756468327e-25)
(-1.78736859949267e-06 -1.8212567738168e-06 -8.45509601729019e-25)
(-1.607544436007e-06 -1.41003346779554e-06 -5.34909221029566e-26)
(-1.39256921405404e-06 -9.68974528510974e-07 -6.57430023067968e-26)
(-1.17746766974169e-06 -6.05197119635617e-07 -9.96359731218402e-25)
(-9.82639301705723e-07 -3.31344914107583e-07 -6.69634697047427e-25)
(-8.12794737486584e-07 -1.33396787778652e-07 1.56291577464834e-24)
(-6.68396564420895e-07 7.57852943741363e-09 6.9646153651175e-25)
(-5.46957982943256e-07 1.07614377686609e-07 -2.66811550082482e-25)
(-4.45359102713866e-07 1.78869843788776e-07 1.03056551037309e-24)
(-3.60400898005319e-07 2.30084118870879e-07 -5.69073115769533e-25)
(-2.89162894422898e-07 2.67343980679484e-07 4.97173805639908e-25)
(-2.29118662399591e-07 2.94836648650805e-07 4.14875143117089e-25)
(-1.78141760620837e-07 3.15391248781453e-07 -2.15573860884834e-25)
(-1.34471821609736e-07 3.30931585433752e-07 3.88249100696396e-25)
(-9.66471747239659e-08 3.42746608197351e-07 -5.61560175008262e-25)
(-6.34517203001944e-08 3.51730942065412e-07 6.38916905195114e-26)
(-3.38611184446125e-08 3.58468576428924e-07 -4.97881874659183e-25)
(-6.99627582834161e-09 3.63370096860154e-07 2.57728575489232e-26)
(1.79208541860027e-08 3.66688742367166e-07 2.81754749823276e-25)
(4.15976002133911e-08 3.68590165879214e-07 -4.44192784759498e-25)
(6.46985753777252e-08 3.69149800400939e-07 -1.23461759070297e-25)
(8.78753134636366e-08 3.68360064346513e-07 -4.1742589490818e-25)
(1.11790921194118e-07 3.66155423941887e-07 9.64211974390753e-25)
(1.37144630204628e-07 3.62377166779213e-07 -1.10180083299346e-25)
(1.64701156546876e-07 3.56760935893553e-07 -7.61455256415683e-25)
(1.953347771725e-07 3.48915230281255e-07 3.9006120911659e-25)
(2.30059053131486e-07 3.38242626724175e-07 -7.62777671891251e-25)
(2.70068571272834e-07 3.23864348698415e-07 9.87609558673478e-25)
(3.16809622759492e-07 3.04480690542472e-07 1.00822075503825e-24)
(3.7202902488483e-07 2.78152522578755e-07 -7.39154633744766e-25)
(4.37836889493411e-07 2.42044054691871e-07 -4.03755308952441e-25)
(5.16735693636022e-07 1.91976847492857e-07 2.14327996036095e-25)
(6.11638198155543e-07 1.21840880521232e-07 5.83048236626209e-26)
(7.25733534793517e-07 2.29133235477505e-08 2.82604675372212e-25)
(8.62169765584737e-07 -1.17058551901938e-07 -2.00753484060725e-24)
(1.02344811841086e-06 -3.14260465776971e-07 -8.62115350747864e-25)
(1.20919096174331e-06 -5.88124835466973e-07 -8.64565651521875e-25)
(1.41477268297743e-06 -9.53990758073747e-07 -2.36507912179068e-24)
(1.62016581822499e-06 -1.40212843656721e-06 -9.16463372215124e-25)
(1.79127694766086e-06 -1.83002498524735e-06 -1.03443629904036e-24)
(1.84102880036665e-06 -1.92700480949821e-06 -2.60996622059804e-24)
(1.6858240404422e-06 -9.97205606153019e-07 -9.7170125873782e-25)
(1.15872478091743e-06 1.73647865983145e-06 -8.41835720855177e-25)
(4.61241749851351e-07 5.96473504882011e-06 -2.66311958092601e-24)
(-2.32921179844963e-07 6.50716453950571e-06 -2.80725057724933e-25)
(4.70417624518821e-07 6.69565685426088e-06 2.63856468339201e-25)
(8.33451576874492e-07 6.61216136538614e-06 -6.66582661893306e-26)
(3.87383923467833e-07 2.59525069012036e-06 6.26697896390531e-25)
(-2.88439103837776e-07 -2.07710610655565e-07 4.55300072357348e-25)
(-7.75575969202417e-07 -1.31076160614726e-06 1.23468664689639e-25)
(-1.0372751171705e-06 -1.36164636774744e-06 1.52730486632992e-26)
(-1.11027207601238e-06 -1.02451521726578e-06 2.57361792742485e-25)
(-1.0749186432474e-06 -6.2093266936477e-07 2.87984415739308e-25)
(-9.81779632364904e-07 -2.71916719381734e-07 7.52246026940999e-26)
(-8.66957570120715e-07 -2.46611520326209e-10 1.17823246621273e-25)
(-7.48835567348701e-07 2.01742676194462e-07 1.05227301027968e-24)
(-6.37469838926578e-07 3.49390265080321e-07 7.34944187075388e-25)
(-5.37009353685308e-07 4.56764472039287e-07 4.04005234283553e-25)
(-4.48658180841498e-07 5.35060523826435e-07 8.33861681845449e-25)
(-3.72017387152594e-07 5.92571850389146e-07 3.14240577517792e-25)
(-3.05949420646986e-07 6.35247071984182e-07 7.75815310360873e-25)
(-2.49057387586276e-07 6.67278486914093e-07 7.14086520857039e-25)
(-1.99920148112497e-07 6.91571098013073e-07 5.80154386023904e-25)
(-1.57228978755572e-07 7.10155014729811e-07 8.5557371600344e-25)
(-1.19802525523379e-07 7.24415276677902e-07 3.45554806715661e-25)
(-8.66016651748901e-08 7.35323412752824e-07 5.7837879171366e-25)
(-5.67270880171379e-08 7.43541619043665e-07 3.62119603723308e-25)
(-2.93715839143097e-08 7.49528884391375e-07 3.93450166617794e-25)
(-3.80568305666423e-09 7.535835380283e-07 5.83509328448583e-25)
(2.06350989973276e-08 7.55882461038264e-07 3.62403616508028e-25)
(4.45809599657217e-08 7.56522614652942e-07 3.14526601079374e-25)
(6.86607193536582e-08 7.55500097231293e-07 2.47553759907809e-25)
(9.35054237986411e-08 7.52734045415441e-07 5.13672251569183e-25)
(1.19773668508289e-07 7.48038661501924e-07 7.82591095270154e-27)
(1.48182537797564e-07 7.41115811770379e-07 -1.55670895885758e-25)
(1.7952453671713e-07 7.31526595188231e-07 5.34283211756224e-26)
(2.14692077952923e-07 7.1859173997807e-07 -3.75295576832768e-25)
(2.54706267706433e-07 7.01362595565498e-07 1.64964836307221e-25)
(3.00727423623708e-07 6.78434785680815e-07 2.33949717258317e-25)
(3.54044349028474e-07 6.4778085416579e-07 -1.87868765134088e-25)
(4.16054730620156e-07 6.06477138326495e-07 -2.24417936183553e-25)
(4.88122798276518e-07 5.50334076732982e-07 1.61768022654248e-25)
(5.71371602291017e-07 4.73402838627737e-07 -8.66002622262014e-26)
(6.66172106489957e-07 3.67378496263073e-07 -3.41723667708283e-26)
(7.71306027941603e-07 2.20984927609407e-07 -7.55760405602772e-25)
(8.82591798905437e-07 1.99744064934779e-08 -3.80022041721175e-25)
(9.89951008380034e-07 -2.5148410154721e-07 -3.91331202021493e-25)
(1.07486387841597e-06 -6.02398278948918e-07 -8.42626075926976e-25)
(1.10115203106156e-06 -1.01308085064743e-06 -4.09435016099091e-25)
(1.01840444096935e-06 -1.3675694294131e-06 -3.91576769940946e-25)
(7.47930342136417e-07 -1.3463848508293e-06 -9.58895490278489e-25)
(2.57624967772008e-07 -2.69047803254547e-07 -2.88539352532886e-25)
(-4.09838287625263e-07 2.55974021282799e-06 -2.23776452455192e-25)
(-8.29907395727634e-07 6.67983754097648e-06 -7.82352042830022e-25)
(-4.58440959674239e-07 6.81197136792418e-06 2.36772313725987e-25)
(5.46233295948375e-07 6.44733110581108e-06 4.1758291304376e-25)
(1.53850701401305e-06 6.72023558017499e-06 8.37386477885833e-25)
(1.30379159004411e-06 3.03052997331592e-06 7.89607186172768e-25)
(6.12422371548864e-07 2.63287069461807e-07 5.16641814118123e-25)
(-4.05546549447107e-08 -9.39295305271703e-07 4.51789251302348e-25)
(-4.84696828149882e-07 -1.11046240252817e-06 5.03341504265596e-25)
(-7.18819117985708e-07 -8.65045693946155e-07 4.21784862839903e-25)
(-8.06674841289159e-07 -5.19087694447101e-07 4.66569082143548e-25)
(-8.03149637356863e-07 -2.01560142906305e-07 6.52414204141822e-25)
(-7.50946456561024e-07 5.55098325033939e-08 6.77059987556144e-25)
(-6.75946427706465e-07 2.52829422697401e-07 6.72927050560786e-25)
(-5.93949096560766e-07 4.01188199145415e-07 7.80587732948195e-25)
(-5.13444655807053e-07 5.11886052087828e-07 8.24533838898363e-25)
(-4.38649044176479e-07 5.94536024430849e-07 6.62853911962768e-25)
(-3.71244279714591e-07 6.56542993923028e-07 7.51429871859737e-25)
(-3.11490540669679e-07 7.03426839705605e-07 8.61099564969681e-25)
(-2.58928321591151e-07 7.39185539657342e-07 9.60795990036541e-25)
(-2.12761877018148e-07 7.66666976653459e-07 1.09573031040114e-24)
(-1.72095939525241e-07 7.87912191071392e-07 1.05471324369123e-24)
(-1.360337225104e-07 8.04349679834978e-07 9.59760070089468e-25)
(-1.0372493082538e-07 8.16993643157322e-07 8.28012994743631e-25)
(-7.43933552025558e-08 8.26556996415714e-07 7.86830238605496e-25)
(-4.73287466305936e-08 8.33529943439166e-07 6.91893417141007e-25)
(-2.18783588266403e-08 8.38245691203829e-07 6.96283623245052e-25)
(2.58058542780648e-09 8.40891897018748e-07 7.6003284346327e-25)
(2.66369719380731e-08 8.41579366989976e-07 6.45977727943446e-25)
(5.0867809806957e-08 8.40308255481112e-07 4.97187690274613e-25)
(7.58604293649384e-08 8.36981099549926e-07 2.24802015876662e-25)
(1.02220606687117e-07 8.31405837957593e-07 2.09729334835624e-25)
(1.30601016819582e-07 8.23249303019299e-07 1.80758864376409e-25)
(1.61696869727852e-07 8.12034592271001e-07 -1.06472758652478e-25)
(1.96272263666787e-07 7.97041872839852e-07 -1.48420976594477e-25)
(2.35157636961873e-07 7.77276729386532e-07 -2.80653242674682e-25)
(2.79228490226351e-07 7.51292026148624e-07 -1.93463869428008e-25)
(3.29359339341128e-07 7.17049414882753e-07 1.23136966246602e-25)
(3.86312486699606e-07 6.71692190955948e-07 6.91279955753393e-26)
(4.50515248128626e-07 6.11223578260771e-07 -2.0307291523024e-26)
(5.2167987654486e-07 5.30139136322046e-07 -1.71421118069121e-25)
(5.98072452931704e-07 4.20991692935827e-07 -1.72236719391676e-25)
(6.75438266540315e-07 2.74115168278421e-07 -2.64391996382121e-26)
(7.45201659279298e-07 7.80453372179892e-08 -1.7964103451908e-25)
(7.91446310161575e-07 -1.78478303399582e-07 -1.66730399085924e-25)
(7.87982736306283e-07 -4.97462885040128e-07 -3.97193370365912e-27)
(6.91736132630833e-07 -8.5000454983975e-07 -1.4821674997594e-25)
(4.47449317117244e-07 -1.11252441897819e-06 -1.40281498330003e-25)
(-7.81614775234951e-09 -9.72041554113168e-07 -5.09133071747273e-28)
(-6.68830329972472e-07 2.01239899085865e-07 -1.0863425139122e-25)
(-1.35772807626423e-06 2.98713803488975e-06 9.49245682385638e-27)
(-1.56622080523789e-06 6.77524227815973e-06 2.16360045627483e-25)
(-5.44976483159979e-07 6.5574917004476e-06 2.10566946934037e-25)
(5.334937496685e-07 5.8708025833443e-06 4.53504229251611e-25)
(1.79040617496516e-06 6.42547840637735e-06 1.23472152856406e-24)
(1.70529833178299e-06 3.1680822007185e-06 7.89956443966007e-25)
(1.0815317402862e-06 5.23342541634757e-07 5.2443685184694e-25)
(3.94198820412474e-07 -7.30006963155232e-07 7.84377801752034e-25)
(-1.19806654492791e-07 -1.00530887053008e-06 8.34639665188835e-25)
(-4.34702055859765e-07 -8.51624419988266e-07 4.71818585519018e-25)
(-5.9440491397317e-07 -5.69910313568008e-07 5.08599438134614e-25)
(-6.49623712961359e-07 -2.91677930318785e-07 9.59379152136515e-25)
(-6.42414370215213e-07 -5.6188161860337e-08 9.34701572287155e-25)
(-6.00961514982387e-07 1.30901294494498e-07 2.98391892018238e-25)
(-5.43466718870771e-07 2.7577690561417e-07 6.24823398814561e-25)
(-4.80705784949681e-07 3.86739460060517e-07 9.48234557224305e-25)
(-4.18703734098827e-07 4.71532953274745e-07 3.69163553685692e-25)
(-3.60526844673555e-07 5.36470435440499e-07 9.21316639994012e-25)
(-3.07444108372495e-07 5.86455460183901e-07 7.71383226871676e-25)
(-2.59735452952981e-07 6.25154201681596e-07 8.92840281591834e-25)
(-2.17118707481291e-07 6.55274711014476e-07 1.2642105263238e-24)
(-1.79066823216415e-07 6.78785591865737e-07 1.01489116486598e-24)
(-1.44941918015808e-07 6.97114604944745e-07 1.17431947779717e-24)
(-1.14073528461553e-07 7.11292227272962e-07 8.50852906437291e-25)
(-8.58264744180142e-08 7.22046029758879e-07 9.95832829162907e-25)
(-5.95828337193614e-08 7.29891068080882e-07 6.93149499583617e-25)
(-3.47620550577885e-08 7.35180569372537e-07 6.56745933968788e-25)
(-1.08075863519613e-08 7.38132126547334e-07 9.50755395147169e-25)
(1.2819344856835e-08 7.38839115760458e-07 6.99143765478511e-25)
(3.66454606029945e-08 7.373161128854e-07 6.5667960969791e-25)
(6.12084903775824e-08 7.33454843969232e-07 -8.35929976825619e-26)
(8.7051936648067e-08 7.27052302270357e-07 2.13191126020311e-25)
(1.14752121105824e-07 7.17755977177361e-07 4.3888789508736e-25)
(1.44907573554365e-07 7.05068423704466e-07 -2.49876721324414e-25)
(1.78147324208942e-07 6.88252213047364e-07 5.93415261739077e-26)
(2.1512030360519e-07 6.6628769323008e-07 -6.0044589317164e-25)
(2.56438473402227e-07 6.37746691062122e-07 -4.91540457818439e-25)
(3.02608433503922e-07 6.00653753508174e-07 3.35414237597581e-25)
(3.53875942875572e-07 5.52308070048123e-07 1.72955097297791e-25)
(4.09927870085399e-07 4.89039132946184e-07 -5.51000402968759e-26)
(4.6945068425348e-07 4.05952125172798e-07 -1.9731756415686e-25)
(5.29317157231912e-07 2.96716996438218e-07 -3.10149885690308e-25)
(5.83446280945939e-07 1.53545337993548e-07 3.7233355846291e-25)
(6.20930243446891e-07 -3.20128908403757e-08 5.11484208173205e-27)
(6.23388920524556e-07 -2.66542430797912e-07 2.73740806234324e-26)