/*--------------------------------*- C++ -*----------------------------------*\
  =========                 |
  \\      /  F ield         | OpenFOAM: The Open Source CFD Toolbox
   \\    /   O peration     | Website:  https://openfoam.org
    \\  /    A nd           | Version:  10
     \\/     M anipulation  |
\*---------------------------------------------------------------------------*/
FoamFile
{
    format      ascii;
    class       volScalarField;
    location    "9.4";
    object      wallHeatFlux;
}
// * * * * * * * * * * * * * * * * * * * * * * * * * * * * * * * * * * * * * //

dimensions      [1 0 -3 0 0 0 0];

internalField   uniform 0;

boundaryField
{
    back
    {
        type            calculated;
        value           uniform 0;
    }
    bottom
    {
        type            calculated;
        value           nonuniform List<scalar> 
50
(
63.535281194228
63.8234248518997
65.7866225983216
67.4896015059045
68.6902591648535
69.4749677223545
69.9699102775625
70.2743823927308
70.4570486980676
70.5637045472688
70.6238159770273
70.6566592764062
70.6739974424853
70.6827780800414
70.6870908791757
70.6890953837839
70.6900488113471
70.6904477825166
70.6905951410922
70.6906630675329
70.6906851246612
70.6906909654579
70.690690540961
70.6906959903058
70.6906941543498
70.6906935097572
70.6906974839923
70.6907007929538
70.6907041352125
70.6907006348158
70.6906753400132
70.690613659824
70.6904240880062
70.6899775337173
70.6889735099561
70.6868024977155
70.6822784032705
70.6731169509753
70.655402302148
70.6220157153332
70.5613203658833
70.4545059916481
70.2721650055738
69.9689533297152
69.4765214596298
68.6934692651389
67.4905186169405
65.7784029758322
63.8095253917601
63.5529412978617
)
;
    }
    left
    {
        type            calculated;
        value           uniform 0;
    }
    front
    {
        type            calculated;
        value           uniform 0;
    }
    right
    {
        type            calculated;
        value           uniform 0;
    }
    top
    {
        type            calculated;
        value           uniform 0;
    }
}


// ************************************************************************* //
