/*--------------------------------*- C++ -*----------------------------------*\
  =========                 |
  \\      /  F ield         | OpenFOAM: The Open Source CFD Toolbox
   \\    /   O peration     | Website:  https://openfoam.org
    \\  /    A nd           | Version:  10
     \\/     M anipulation  |
\*---------------------------------------------------------------------------*/
FoamFile
{
    format      ascii;
    class       volScalarField;
    location    "4.6";
    object      alphat;
}
// * * * * * * * * * * * * * * * * * * * * * * * * * * * * * * * * * * * * * //

dimensions      [1 -1 -1 0 0 0 0];

internalField   nonuniform List<scalar> 
2500
(
1.40882471659883e-14
2.73958946290655e-13
1.15392638577026e-12
1.94858674715829e-12
2.56441774894584e-12
2.99083457438199e-12
3.25676598611174e-12
3.40713447020934e-12
3.48474195488088e-12
3.52154316840149e-12
3.53767735402773e-12
3.5442550876872e-12
3.54676177516995e-12
3.54765852680437e-12
3.54796042468385e-12
3.54805588424075e-12
3.54808376123043e-12
3.54809073811832e-12
3.54809167552779e-12
3.54809109002623e-12
3.54809023345931e-12
3.54808943207226e-12
3.54808875004474e-12
3.5480881973365e-12
3.5480877806391e-12
3.5480875055303e-12
3.54808739317074e-12
3.54808742420162e-12
3.54808749407243e-12
3.54808762624524e-12
3.54808774842177e-12
3.54808729171875e-12
3.54808420244433e-12
3.54807210414281e-12
3.54803125434782e-12
3.54790285484382e-12
3.54752138537734e-12
3.54644637604542e-12
3.54357633345209e-12
3.53634093399164e-12
3.51919073043248e-12
3.48116093847089e-12
3.40271343987083e-12
3.25310297162292e-12
2.99103450343478e-12
2.57225992349041e-12
1.9659039245114e-12
1.17633664095336e-12
2.84633939973182e-13
1.50355482819412e-14
1.38999180335231e-12
7.09495434847147e-11
3.05282719139633e-10
5.16382393845307e-10
6.80810030269902e-10
7.9548552439582e-10
8.67618976076362e-10
9.08798733447374e-10
9.30270535894019e-10
9.40560661937151e-10
9.45120644480762e-10
9.46999717732145e-10
9.47723435750194e-10
9.47985062474773e-10
9.48074067793418e-10
9.48102523377207e-10
9.48110953244128e-10
9.48113124495819e-10
9.48113463128098e-10
9.48113328474437e-10
9.48113103089019e-10
9.48112889030764e-10
9.48112706321978e-10
9.48112558580766e-10
9.48112447209706e-10
9.48112374245651e-10
9.48112346247708e-10
9.48112355554858e-10
9.48112373560168e-10
9.48112409926667e-10
9.48112437418627e-10
9.48112280290646e-10
9.48111320092799e-10
9.4810767540205e-10
9.48095520651474e-10
9.4805767958813e-10
9.47946246980159e-10
9.47634987985818e-10
9.46811477633165e-10
9.44754548574936e-10
9.39924872355006e-10
9.29317301482053e-10
9.07644125287894e-10
8.66695444420144e-10
7.95604339291158e-10
6.82929301781605e-10
5.20930213766118e-10
3.1108890306808e-10
7.36354439247727e-11
1.47885929413821e-12
4.91471447491065e-12
1.27079302252731e-09
4.28229116657173e-07
7.2148420946793e-07
9.48108232278299e-07
1.10582302828331e-06
1.20518737420885e-06
1.26216263307997e-06
1.29205917783113e-06
1.30649553441245e-06
1.31294611214472e-06
1.31562744809207e-06
1.3166693883436e-06
1.317049480598e-06
1.31718000128018e-06
1.31722215747764e-06
1.31723481491147e-06
1.31723816330639e-06
1.31723875148747e-06
1.31723860894977e-06
1.31723831962404e-06
1.31723803698654e-06
1.31723779408775e-06
1.3172375973048e-06
1.31723744848528e-06
1.31723735060427e-06
1.31723731301971e-06
1.31723732289362e-06
1.31723734482749e-06
1.31723738951901e-06
1.31723741479177e-06
1.31723715341477e-06
1.31723570135581e-06
1.31723032918395e-06
1.31721257644345e-06
1.31715767944619e-06
1.31699698723572e-06
1.31655077018629e-06
1.31537725692282e-06
1.312464048973e-06
1.30566628178287e-06
1.2908277777855e-06
1.26068556880184e-06
1.2040195626084e-06
1.10598788956928e-06
9.50804523458997e-07
7.27246188966255e-07
4.35587481453199e-07
1.31370589255675e-09
5.17400107213481e-12
8.66299408707844e-12
2.25571223065895e-09
7.59780790992692e-07
1.27192359992641e-06
1.66396568484382e-06
1.93520074111812e-06
2.10557862578464e-06
2.20319901876956e-06
2.25446545061577e-06
2.27926801206308e-06
2.29037977427916e-06
2.2950132422107e-06
2.29682017591599e-06
2.29748191816323e-06
2.29771014319009e-06
2.29778423133852e-06
2.29780663412602e-06
2.29781264567716e-06
2.29781376075533e-06
2.29781355944584e-06
2.29781309411837e-06
2.29781262847016e-06
2.2978122258619e-06
2.29781189868725e-06
2.29781164982469e-06
2.29781148368857e-06
2.2978114146992e-06
2.29781142322693e-06
2.29781146310001e-06
2.29781152926735e-06
2.2978115660179e-06
2.29781110751923e-06
2.29780864055808e-06
2.29779954357439e-06
2.29776944966927e-06
2.29767623182079e-06
2.29740287455101e-06
2.29664250769381e-06
2.29463980474371e-06
2.28966190252534e-06
2.27803438296531e-06
2.25263117174958e-06
2.20098281529105e-06
2.10376975077505e-06
1.93525794000462e-06
1.66759996887888e-06
1.27989920791204e-06
7.70000023140262e-07
2.31485006118544e-09
9.01579192220039e-12
1.22565620222919e-11
3.19344591644125e-09
1.06996545511414e-06
1.7812339125813e-06
2.32159084083029e-06
2.69370949516883e-06
2.92692563610007e-06
3.06048186108191e-06
3.13067371240036e-06
3.16468855565428e-06
3.1799624740572e-06
3.18634920004237e-06
3.18884777162773e-06
3.18976606404166e-06
3.19008404408291e-06
3.19018776912092e-06
3.19021935255e-06
3.19022795295693e-06
3.19022963684603e-06
3.19022943334802e-06
3.19022884443733e-06
3.19022824079832e-06
3.19022771479379e-06
3.19022728540495e-06
3.19022695649023e-06
3.19022673259472e-06
3.1902266255192e-06
3.19022662783938e-06
3.19022668736567e-06
3.19022675801712e-06
3.19022678942739e-06
3.19022613864605e-06
3.19022278731771e-06
3.19021049395512e-06
3.19016979817198e-06
3.19004354199161e-06
3.18967261873165e-06
3.18863898417493e-06
3.18591201202109e-06
3.17912409621375e-06
3.16324938551138e-06
3.12853107418332e-06
3.0578745334106e-06
2.92473134642979e-06
2.69355132123334e-06
2.32536889031132e-06
1.78979695311829e-06
1.0810294430007e-06
3.25856121918774e-09
1.2652613560355e-11
1.55524322206834e-11
4.05377261200933e-09
1.35122098845149e-06
2.23877250364772e-06
2.90891990652336e-06
3.36874595281029e-06
3.6564463887034e-06
3.82116596039507e-06
3.9078064858542e-06
3.9498580553891e-06
3.9687807924741e-06
3.97671347377687e-06
3.97982593772991e-06
3.9809736329074e-06
3.98137255202013e-06
3.98150328356101e-06
3.98154336270039e-06
3.98155443735542e-06
3.98155672367873e-06
3.98155657872349e-06
3.98155592221273e-06
3.98155522803892e-06
3.98155461714901e-06
3.98155411532491e-06
3.98155372768125e-06
3.98155345850457e-06
3.98155331594366e-06
3.98155330769233e-06
3.98155336212782e-06
3.98155343436596e-06
3.98155343661454e-06
3.9815525908538e-06
3.98154846890977e-06
3.98153345141204e-06
3.98148375255032e-06
3.98132940148144e-06
3.98087524582416e-06
3.97960766078737e-06
3.97625854499489e-06
3.96791127028235e-06
3.9483685665962e-06
3.90558940092712e-06
3.81845606323109e-06
3.65411406912908e-06
3.36839494772284e-06
2.91241700986366e-06
2.24695037025712e-06
1.36191015097682e-06
4.11866345182114e-09
1.59602765828219e-11
1.84754646664805e-11
4.81842719886726e-09
1.59913800605431e-06
2.63903212394971e-06
3.42034022232962e-06
3.95493692895122e-06
4.28901900668472e-06
4.48029186648861e-06
4.58098487484775e-06
4.6299294515072e-06
4.65199720588705e-06
4.66127007543046e-06
4.66491818950772e-06
4.66626751143106e-06
4.66673816683711e-06
4.66689308492049e-06
4.66694089069262e-06
4.66695428830769e-06
4.66695719663898e-06
4.66695716570314e-06
4.66695649352642e-06
4.66695575364168e-06
4.66695509413644e-06
4.6669545479933e-06
4.666954121889e-06
4.6669538197419e-06
4.6669536477117e-06
4.66695361568356e-06
4.66695365629288e-06
4.66695371860231e-06
4.66695366750036e-06
4.66695262616151e-06
4.66694783312811e-06
4.66693051431856e-06
4.6668732714428e-06
4.66669538474311e-06
4.66617133647118e-06
4.66470670001931e-06
4.6608320228413e-06
4.65116407484672e-06
4.62850828795428e-06
4.57887651572025e-06
4.47771802574151e-06
4.28678805983149e-06
3.95452124893166e-06
3.42343238952377e-06
2.6463747588942e-06
1.60882797291766e-06
4.87967738710039e-09
1.88762256216353e-11
2.09919300838921e-11
5.47882138260356e-09
1.81204395518714e-06
2.98071361021636e-06
3.85535701455277e-06
4.45254383669682e-06
4.82543673955673e-06
5.03896317303542e-06
5.1514685458553e-06
5.20623114497014e-06
5.230966714692e-06
5.24138295876333e-06
5.24549100550141e-06
5.24701470056595e-06
5.2475479101634e-06
5.24772413747172e-06
5.24777885553065e-06
5.24779439586035e-06
5.24779792795512e-06
5.24779805495533e-06
5.24779741046808e-06
5.24779666302108e-06
5.24779598604098e-06
5.2477954198656e-06
5.24779497282729e-06
5.24779464841527e-06
5.24779445108542e-06
5.24779438876379e-06
5.24779440830773e-06
5.24779444883238e-06
5.24779432378772e-06
5.24779308862583e-06
5.24778771456602e-06
5.24776847095243e-06
5.24770499290875e-06
5.2475076849259e-06
5.24692586162056e-06
5.24529790872722e-06
5.24098649677248e-06
5.23021855331205e-06
5.20496505653948e-06
5.14960720569152e-06
5.03671753364617e-06
4.82353068360576e-06
4.45226274693429e-06
3.85814217722938e-06
2.98716236925039e-06
1.82055163425594e-06
5.53505046087952e-09
2.13760725824668e-11
2.3099064192064e-11
6.03397823314011e-09
1.99040345410422e-06
3.2656482485672e-06
4.2171703925692e-06
4.86582452265691e-06
5.27064699302331e-06
5.50251991296025e-06
5.62479615808413e-06
5.68439192396491e-06
5.71135496931509e-06
5.72273136918685e-06
5.7272281239318e-06
5.72890024105638e-06
5.729487131461e-06
5.72968183215792e-06
5.729742633577e-06
5.72976011444628e-06
5.72976425372608e-06
5.72976456905472e-06
5.72976398487222e-06
5.7297632595387e-06
5.7297625898389e-06
5.72976202302604e-06
5.72976156919508e-06
5.72976123147045e-06
5.72976101271551e-06
5.72976091588979e-06
5.7297609084759e-06
5.72976092121708e-06
5.72976070406839e-06
5.72975927594306e-06
5.72975340890197e-06
5.72973257476787e-06
5.72966401729813e-06
5.72945093132441e-06
5.72882211618968e-06
5.72706102533406e-06
5.7223927346405e-06
5.71072405307588e-06
5.68333989535153e-06
5.62327990255239e-06
5.50074933153031e-06
5.26926193192753e-06
4.86590887801025e-06
4.2198842130175e-06
3.27140373829095e-06
1.99784644232481e-06
6.08523225284956e-09
2.34638949385045e-11
2.48170458851547e-11
6.48866242827834e-09
2.13625561420722e-06
3.49787917603504e-06
4.51152137571978e-06
5.20173979410898e-06
5.63238035206165e-06
5.87912657810377e-06
6.00935275479684e-06
6.07289856156663e-06
6.10169151022288e-06
6.11386127409089e-06
6.11868127326486e-06
6.12047769312397e-06
6.12110990590119e-06
6.12132036063184e-06
6.12138642638624e-06
6.12140563069256e-06
6.1214103450348e-06
6.12141086675367e-06
6.12141036364601e-06
6.12140968153914e-06
6.12140903715847e-06
6.12140848412682e-06
6.1214080342322e-06
6.12140769049905e-06
6.12140745459949e-06
6.12140732548346e-06
6.1214072815845e-06
6.1214072400365e-06
6.12140693140104e-06
6.12140534242724e-06
6.12139905162328e-06
6.12137692076307e-06
6.1213042893221e-06
6.12107859576639e-06
6.12041220630764e-06
6.11854444870764e-06
6.11358962037319e-06
6.10119636353316e-06
6.07209570487429e-06
6.00824366480435e-06
5.87793336364119e-06
5.63167351155174e-06
5.20241435777127e-06
4.51445860963455e-06
3.5032802055252e-06
2.14292583770995e-06
6.53587473046372e-09
2.51644324792504e-11
2.61818853964599e-11
6.85169640699181e-09
2.25272107837241e-06
3.68290640548537e-06
4.74577679968358e-06
5.46894796979858e-06
5.92009646419598e-06
6.17869268632475e-06
6.3152776640533e-06
6.381997685314e-06
6.41226893113028e-06
6.42508338888796e-06
6.4301677526685e-06
6.43206655496799e-06
6.43273639874375e-06
6.43296006368407e-06
6.4330306063216e-06
6.43305130934329e-06
6.43305655622768e-06
6.43305729349487e-06
6.43305687768599e-06
6.43305625165477e-06
6.43305564415969e-06
6.43305511445459e-06
6.43305467597154e-06
6.43305433180296e-06
6.43305408286872e-06
6.43305392626677e-06
6.43305384090363e-06
6.43305374505948e-06
6.43305335241699e-06
6.43305161255502e-06
6.43304496214838e-06
6.43302178970343e-06
6.43294594497354e-06
6.43271035318435e-06
6.43201445743286e-06
6.43006279309937e-06
6.42488212437148e-06
6.41191678134851e-06
6.38145902451251e-06
6.31460615390518e-06
6.17813619402621e-06
5.92017768348892e-06
5.47040102508663e-06
4.74922684608735e-06
3.68833043385626e-06
2.25897982669861e-06
6.89622715244423e-09
2.65162216399445e-11
2.72390460058373e-11
7.13441481440095e-09
2.34356239060145e-06
3.82703914192068e-06
4.92816021391638e-06
5.67696872794212e-06
6.14411205783295e-06
6.41198215749557e-06
6.55356449446608e-06
6.62279126274637e-06
6.65423631420584e-06
6.66756573717274e-06
6.67286264318576e-06
6.67484434460693e-06
6.67554490305392e-06
6.67577945566185e-06
6.67585373864083e-06
6.67587571982994e-06
6.67588144257084e-06
6.67588238268039e-06
6.67588206647059e-06
6.67588150298437e-06
6.67588093864286e-06
6.67588043784941e-06
6.67588001560828e-06
6.67587967519217e-06
6.67587941702129e-06
6.67587923725172e-06
6.67587911471599e-06
6.67587896695989e-06
6.67587849499876e-06
6.67587661997366e-06
6.67586967083765e-06
6.67584567563391e-06
6.67576734130927e-06
6.67552412141045e-06
6.67480548994282e-06
6.67278907568703e-06
6.66743381316901e-06
6.6540254796376e-06
6.62251553680447e-06
6.55333408207825e-06
6.41208214776068e-06
6.14504010568344e-06
5.67933225334191e-06
4.93236167039757e-06
3.83282992505115e-06
2.34976191793628e-06
7.17769275856464e-09
2.75656027378643e-11
2.80378887136956e-11
7.34928207344209e-09
2.41279730764159e-06
3.93683778067302e-06
5.0670952409031e-06
5.83547164734978e-06
6.3148597148258e-06
6.58985630386206e-06
6.735296037344e-06
6.8064675452501e-06
6.83882834198822e-06
6.85256196558407e-06
6.85802679752537e-06
6.86007446559357e-06
6.86079966122255e-06
6.86104303138302e-06
6.86112038367737e-06
6.86114343625376e-06
6.86114957123934e-06
6.86115069868477e-06
6.86115048119891e-06
6.86114998127968e-06
6.86114946210526e-06
6.86114899261422e-06
6.86114858926062e-06
6.8611482555649e-06
6.86114799161745e-06
6.86114779298115e-06
6.86114763814744e-06
6.86114744330984e-06
6.8611469006866e-06
6.86114490926186e-06
6.86113771753371e-06
6.86111308419248e-06
6.86103285680426e-06
6.86078387073953e-06
6.86004806104582e-06
6.85798266007609e-06
6.85249508575719e-06
6.83875052701044e-06
6.80644102879704e-06
6.73548864900048e-06
6.59059833105531e-06
6.31664398856551e-06
5.83881295004372e-06
5.07221056584658e-06
3.94326131649176e-06
2.4192304664317e-06
7.39256201268393e-09
2.83616417170972e-11
2.86271798740084e-11
7.50874603293822e-09
2.46438047298771e-06
4.01866021266619e-06
5.17067405414444e-06
5.95370080652544e-06
6.44228810845775e-06
6.72266083947555e-06
6.87102433869427e-06
6.94367767049528e-06
6.9767402600309e-06
6.99078557772058e-06
6.99638077005823e-06
6.99848001810402e-06
6.99922463243849e-06
6.99947501863824e-06
6.99955484428487e-06
6.99957877846105e-06
6.99958526316974e-06
6.99958655661576e-06
6.9995864306202e-06
6.99958599151086e-06
6.99958551644051e-06
6.99958507829569e-06
6.99958469483505e-06
6.99958436986111e-06
6.9995841032453e-06
6.99958389012269e-06
6.99958370854403e-06
6.99958347335017e-06
6.9995828706585e-06
6.99958078257686e-06
6.99957339861827e-06
6.99954827996959e-06
6.99946664092027e-06
6.99921338187296e-06
6.99846485121142e-06
6.99636313165148e-06
6.9907773058133e-06
6.97678270735201e-06
6.94387791598513e-06
6.87160597305451e-06
6.72400334971409e-06
6.44489511248185e-06
5.95802448043712e-06
5.17678237358078e-06
4.02588624254706e-06
2.47125614059922e-06
7.55297814548042e-09
2.89521239976007e-11
2.90518547518891e-11
7.62438966646592e-09
2.50196832775214e-06
4.07833060914159e-06
5.24627125833176e-06
6.04005741945745e-06
6.53542693919509e-06
6.81978094927163e-06
6.97032044373396e-06
7.04408266582621e-06
7.07767354734755e-06
7.09195499537577e-06
7.09764961670429e-06
7.09978849344103e-06
7.10054814713617e-06
7.10080401825688e-06
7.10088580117571e-06
7.1009104462474e-06
7.10091722033192e-06
7.1009186563989e-06
7.10091861314004e-06
7.10091822974635e-06
7.10091779569489e-06
7.10091738735119e-06
7.10091702362152e-06
7.10091670859771e-06
7.10091644201745e-06
7.1009162186814e-06
7.100916016207e-06
7.10091574827906e-06
7.10091509675619e-06
7.10091293127805e-06
7.100905398927e-06
7.10087991884069e-06
7.10079724810499e-06
7.10054088605978e-06
7.09978312521094e-06
7.09765502479149e-06
7.09199772253418e-06
7.07782096361339e-06
7.044481988064e-06
6.97124682073872e-06
6.82166333060524e-06
6.53879008820534e-06
6.04531503245102e-06
5.25337518049666e-06
4.0864341806247e-06
2.50940754497663e-06
7.67018183045258e-09
2.93807349669773e-11
2.93510555557505e-11
7.7063971266617e-09
2.52877123653595e-06
4.12093508226227e-06
5.30030834048253e-06
6.10184664909143e-06
6.60212355963185e-06
6.88937200778073e-06
7.04150176839732e-06
7.11607900655237e-06
7.15006054893899e-06
7.16451774838926e-06
7.17028688671835e-06
7.17245568267131e-06
7.17322678267826e-06
7.17348686733805e-06
7.17357017176044e-06
7.17359537911362e-06
7.17360238746852e-06
7.17360394332598e-06
7.17360397237849e-06
7.17360363827659e-06
7.17360324107388e-06
7.17360286009811e-06
7.17360251523927e-06
7.1736022108638e-06
7.17360194663495e-06
7.17360171709766e-06
7.17360149948378e-06
7.17360120656028e-06
7.17360051720682e-06
7.1735982921222e-06
7.17359064845271e-06
7.17356490517571e-06
7.17348149600444e-06
7.17322292645968e-06
7.17245860448541e-06
7.17031173174553e-06
7.16460349088222e-06
7.150296727861e-06
7.11664752441722e-06
7.04272353688297e-06
6.8917226766536e-06
6.60615449239818e-06
6.10795090841038e-06
5.30834964739449e-06
4.12991139813842e-06
2.53681752914647e-06
7.75404283437973e-09
2.9685403063333e-11
2.95572968100402e-11
7.76330400568793e-09
2.54748494795015e-06
4.15073237701798e-06
5.33815488205804e-06
6.14517401300724e-06
6.64893648707033e-06
6.93825114084251e-06
7.09152234093943e-06
7.16668802025854e-06
7.20095339416112e-06
7.21553913563923e-06
7.22136315854906e-06
7.22355415609895e-06
7.22433381896177e-06
7.22459708512864e-06
7.22468155190529e-06
7.22470719615839e-06
7.22471439061019e-06
7.22471604469687e-06
7.22471613506631e-06
7.22471584346102e-06
7.22471547854958e-06
7.22471512212781e-06
7.22471479490735e-06
7.22471450149952e-06
7.22471424153785e-06
7.22471400937621e-06
7.22471378193024e-06
7.2247134712639e-06
7.22471275419313e-06
7.22471048516737e-06
7.2247027606362e-06
7.22467683037434e-06
7.22459290404754e-06
7.22433279660133e-06
7.22356390622175e-06
7.2214039475446e-06
7.21566014288805e-06
7.20126248221125e-06
7.16739610812566e-06
7.09298947574795e-06
6.94099482180697e-06
6.65353615863747e-06
6.15201424843914e-06
5.34703407751839e-06
4.16051827152061e-06
2.55612229206484e-06
7.81284748189228e-09
2.98976386583505e-11
2.96964846496804e-11
7.8019713381909e-09
2.56028523652487e-06
4.17115612691524e-06
5.36413886067968e-06
6.1749614406536e-06
6.68115470851747e-06
6.97191798531736e-06
7.12599402696147e-06
7.20157715426642e-06
7.23604518451486e-06
7.25072333117556e-06
7.2565870921073e-06
7.25879428629638e-06
7.25958024731439e-06
7.25984587549127e-06
7.25993121537709e-06
7.25995719330286e-06
7.25996453283345e-06
7.25996626600534e-06
7.25996640759875e-06
7.25996615204755e-06
7.25996581502967e-06
7.25996548037272e-06
7.25996516947326e-06
7.25996488715499e-06
7.25996463304585e-06
7.25996440136193e-06
7.25996416877346e-06
7.25996384682768e-06
7.25996311092366e-06
7.25996081125069e-06
7.25995303025835e-06
7.25992697089383e-06
7.25984269080878e-06
7.25958153493903e-06
7.25880952977252e-06
7.25664063604695e-06
7.2508725068965e-06
7.23641257713356e-06
7.20239723573729e-06
7.12765919130526e-06
6.97498159295702e-06
6.68622294739728e-06
6.18241790344337e-06
5.37373450910918e-06
4.1816527050908e-06
2.56945820449664e-06
7.85328537660997e-09
3.00426309973427e-11
2.97885044837788e-11
7.82771171124886e-09
2.56886632635218e-06
4.18488051706856e-06
5.38163259249451e-06
6.19504647058704e-06
6.70290458083039e-06
6.99466557519174e-06
7.14929924255983e-06
7.22517342048209e-06
7.25978368600449e-06
7.27452714052831e-06
7.28041919199654e-06
7.28263800596961e-06
7.28342852306194e-06
7.28369587617198e-06
7.28378186128262e-06
7.28380808986229e-06
7.28381554065045e-06
7.28381733678677e-06
7.2838175207991e-06
7.28381729547804e-06
7.28381698237934e-06
7.28381666693381e-06
7.28381637109526e-06
7.2838160998592e-06
7.28381585286933e-06
7.28381562424771e-06
7.28381539048257e-06
7.28381506274751e-06
7.28381431549299e-06
7.28381199607782e-06
7.2838041776986e-06
7.28377803232637e-06
7.28369351671151e-06
7.28343166268106e-06
7.28265758000829e-06
7.28048271397706e-06
7.27469829164381e-06
7.26019657516975e-06
7.22608111326541e-06
7.1511200514076e-06
6.99798241764962e-06
6.70834735611359e-06
6.20300186801277e-06
5.39181774808344e-06
4.19597322133447e-06
2.57849860389313e-06
7.88057126424698e-09
3.01398327938053e-11
2.98481082776922e-11
7.84450030586801e-09
2.57450440481828e-06
4.19392210113395e-06
5.39318173948275e-06
6.20832882475337e-06
6.71730674568239e-06
7.00974279691204e-06
7.16475610714286e-06
7.24082973895848e-06
7.27553814718882e-06
7.29032698780798e-06
7.29623884722773e-06
7.29846586102497e-06
7.29925962060543e-06
7.29952821333167e-06
7.29961466788888e-06
7.29964108199529e-06
7.29964861701415e-06
7.29965046305593e-06
7.29965068209909e-06
7.29965048182399e-06
7.29965018925449e-06
7.29964989084651e-06
7.29964960898464e-06
7.29964934880464e-06
7.2996491099688e-06
7.29964888654325e-06
7.29964865488707e-06
7.29964832591461e-06
7.2996475734533e-06
7.2996452430396e-06
7.29963740193466e-06
7.29961120216283e-06
7.29952653515856e-06
7.29926422906036e-06
7.29848879476621e-06
7.29631002863015e-06
7.29051493369176e-06
7.27598577680076e-06
7.24180443414618e-06
7.16669638125879e-06
7.01325512455691e-06
6.72304094913007e-06
6.21667645186482e-06
5.40383617410731e-06
4.20549626460787e-06
2.58451359436438e-06
7.89864236667705e-09
3.02038002867147e-11
2.98858934667362e-11
7.8552170254126e-09
2.57813085191034e-06
4.19975520052004e-06
5.40065023529943e-06
6.2169344071855e-06
6.72665146703109e-06
7.0195359180663e-06
7.17480307346693e-06
7.25101099285662e-06
7.28578595443723e-06
7.3006058026803e-06
7.30653129982061e-06
7.30876400509795e-06
7.30956003508887e-06
7.30982950467414e-06
7.30991629571375e-06
7.30994284534901e-06
7.30995044341848e-06
7.30995232937008e-06
7.30995257768091e-06
7.3099523974283e-06
7.3099521225568e-06
7.30995183938504e-06
7.3099515705963e-06
7.30995132142863e-06
7.30995109156762e-06
7.30995087505052e-06
7.30995064814782e-06
7.30995032160177e-06
7.30994956884742e-06
7.30994723430561e-06
7.30993938159537e-06
7.30991315038737e-06
7.30982839126097e-06
7.30956580384811e-06
7.30878951863006e-06
7.3066082788806e-06
7.30080637849765e-06
7.28625965195072e-06
7.25203599020311e-06
7.17683327124543e-06
7.02319605693788e-06
6.73260744189763e-06
6.22558298503338e-06
5.41166831872289e-06
4.2117066231303e-06
2.58843892025216e-06
7.91038360791251e-09
3.0245109236533e-11
2.99092325230696e-11
7.86188191060085e-09
2.58040405113225e-06
4.20342441874802e-06
5.40536120933191e-06
6.22237464310072e-06
6.73256901438178e-06
7.025745083722e-06
7.18117854363441e-06
7.25747511295112e-06
7.29229435450237e-06
7.30713499932519e-06
7.3130697190999e-06
7.31530630658854e-06
7.31610389973936e-06
7.31637397967728e-06
7.31646100838069e-06
7.31648765588225e-06
7.31649530076234e-06
7.3164972177876e-06
7.31649748948674e-06
7.31649732742213e-06
7.31649706805156e-06
7.31649679869793e-06
7.31649654228851e-06
7.31649630412657e-06
7.31649608392229e-06
7.3164958757082e-06
7.3164956556968e-06
7.31649533451994e-06
7.31649458538694e-06
7.31649225210091e-06
7.31648439624013e-06
7.31645815037555e-06
7.31637334104629e-06
7.31611059084587e-06
7.31533379896494e-06
7.31315106149464e-06
7.30734499353525e-06
7.29278741761103e-06
7.25853745686484e-06
7.18327561420455e-06
7.02951552366158e-06
6.73869133306127e-06
6.23125046566497e-06
5.41665607094099e-06
4.21566552020557e-06
2.59094377555255e-06
7.91784725149061e-09
3.02712240966235e-11
2.99230725153167e-11
7.86586114959372e-09
2.58177283388785e-06
4.20564390486039e-06
5.40822128289521e-06
6.22568708171849e-06
6.73618012580983e-06
7.02954029894505e-06
7.18507970900286e-06
7.26143328689463e-06
7.29628127149336e-06
7.3111355441154e-06
7.31707636570847e-06
7.3193155471829e-06
7.32011419588866e-06
7.32038469314267e-06
7.32047188713129e-06
7.32049860454205e-06
7.32050628415032e-06
7.32050822507597e-06
7.32050851637442e-06
7.32050837025679e-06
7.32050812464759e-06
7.320507867995e-06
7.32050762341844e-06
7.32050739626318e-06
7.32050718626261e-06
7.32050698745929e-06
7.32050677603299e-06
7.32050646255178e-06
7.32050572012079e-06
7.32050339229254e-06
7.32049553977662e-06
7.3204692918156e-06
7.32038446279337e-06
7.32012163422624e-06
7.31934457722676e-06
7.31716101953909e-06
7.31135260105053e-06
7.29678877736027e-06
7.2625234364608e-06
7.18722660751493e-06
7.03339313344843e-06
6.74242721358169e-06
6.23473428836372e-06
5.41972625966214e-06
4.21810653046126e-06
2.59249113618322e-06
7.92244656338778e-09
3.02872503278839e-11
2.99305692637391e-11
7.86803262516253e-09
2.58252793990853e-06
4.20687791345001e-06
5.40982154214993e-06
6.2275497403343e-06
6.73821850153521e-06
7.03168853078371e-06
7.18729206743584e-06
7.26368065195065e-06
7.29854652987656e-06
7.31340940202177e-06
7.31935412603317e-06
7.3215949887994e-06
7.32239433122971e-06
7.32266510718459e-06
7.3227524139909e-06
7.32277918079891e-06
7.32278688628405e-06
7.32278884598176e-06
7.32278915368557e-06
7.32278902158187e-06
7.3227887883837e-06
7.32278854358006e-06
7.32278831043348e-06
7.32278809431611e-06
7.322787894984e-06
7.32278770649815e-06
7.32278750501363e-06
7.32278720107286e-06
7.32278646778056e-06
7.32278414873945e-06
7.32277630473532e-06
7.32275006464376e-06
7.32266523979133e-06
7.32240239747119e-06
7.3216252562274e-06
7.31944137590953e-06
7.31363191973057e-06
7.29906512818964e-06
7.26479210380365e-06
7.18947715033325e-06
7.03560461834957e-06
6.7445616869789e-06
6.23672954888187e-06
5.42148999610092e-06
4.21951401520212e-06
2.59338716415676e-06
7.92511320868661e-09
3.02965360477544e-11
2.99335492915687e-11
7.86890785172207e-09
2.58284022226287e-06
4.20740067563808e-06
5.41051254777797e-06
6.22836615600395e-06
6.7391220750667e-06
7.03264855394616e-06
7.1882861753068e-06
7.26469399907273e-06
7.29957000006749e-06
7.31443787639071e-06
7.32038493410557e-06
7.3226268301953e-06
7.32342661216079e-06
7.32369757191732e-06
7.32378495783369e-06
7.32381176270699e-06
7.32381949064272e-06
7.32382146793376e-06
7.32382179163841e-06
7.32382167358808e-06
7.32382145288908e-06
7.3238212199973e-06
7.32382099828383e-06
7.32382079315796e-06
7.32382060440153e-06
7.32382042607116e-06
7.32382023430847e-06
7.32381993964451e-06
7.32381921525692e-06
7.32381690506288e-06
7.32380907078177e-06
7.32378284360752e-06
7.32369803981473e-06
7.32343523535293e-06
7.32265815846976e-06
7.32047436161966e-06
7.31466492016535e-06
7.30009773767085e-06
7.26582296320212e-06
7.19050266954578e-06
7.03661674170706e-06
6.74554462604284e-06
6.2376558918775e-06
5.42231713740453e-06
4.22018198033041e-06
2.59381832280321e-06
7.92641481315185e-09
3.03011173829506e-11
2.9932791993405e-11
7.86870802387121e-09
2.58278529360499e-06
4.2073356299642e-06
5.41045395206165e-06
6.22832178620578e-06
6.73909351656256e-06
7.03263377335292e-06
7.18828168917563e-06
7.26469634214174e-06
7.29957643486912e-06
7.31444656286977e-06
7.3203947698661e-06
7.3226372186411e-06
7.32343725692236e-06
7.32370833599723e-06
7.32379578132096e-06
7.32382262034449e-06
7.32383037195143e-06
7.32383236915869e-06
7.32383271109245e-06
7.32383260892685e-06
7.32383240207187e-06
7.3238321819638e-06
7.32383197201671e-06
7.32383177770455e-06
7.32383159883053e-06
7.32383142942676e-06
7.32383124560922e-06
7.32383095791009e-06
7.32383023963394e-06
7.32382793528425e-06
7.32382010845301e-06
7.32379389555255e-06
7.32370912625294e-06
7.32344640851613e-06
7.32266954168013e-06
7.3204862235896e-06
7.3146777997892e-06
7.30011262102321e-06
7.26584147389333e-06
7.19052716122201e-06
7.03665010144875e-06
6.74558957160803e-06
6.2377136364059e-06
5.42238547906305e-06
4.2202530118309e-06
2.5938759853682e-06
7.92663273734739e-09
3.030201445406e-11
2.99281870462184e-11
7.86740624424803e-09
2.58235631880257e-06
4.20667482621885e-06
5.40963878133969e-06
6.22741156210753e-06
6.73812986946105e-06
7.03164310670854e-06
7.18727895397845e-06
7.2636889792665e-06
7.29856771974708e-06
7.31343766306953e-06
7.31938599226011e-06
7.32162858454566e-06
7.32242872506397e-06
7.32269986902599e-06
7.32278735623984e-06
7.32281422478882e-06
7.32282199970351e-06
7.32282401766998e-06
7.32282437880859e-06
7.32282429306905e-06
7.32282410032142e-06
7.32282389323542e-06
7.32282369504452e-06
7.32282351129137e-06
7.32282334179715e-06
7.3228231805707e-06
7.32282300370602e-06
7.32282272174978e-06
7.3228220082416e-06
7.32281970864983e-06
7.32281188967044e-06
7.32278569662457e-06
7.32270098304354e-06
7.32243841713783e-06
7.32166194171253e-06
7.31947957550655e-06
7.3136733347459e-06
7.29911287158856e-06
7.26485129939753e-06
7.18955521890885e-06
7.03571064461326e-06
6.74470418471482e-06
6.23691224009375e-06
5.4217058162058e-06
4.21973798123426e-06
2.59356855880517e-06
7.92579786157389e-09
3.02993505768581e-11
2.99187560853227e-11
7.86473082018211e-09
2.5814640748674e-06
4.20527868414729e-06
5.40789297895057e-06
6.22543945229985e-06
6.73602224541919e-06
7.02946082576845e-06
7.18505896839819e-06
7.2614515706123e-06
7.29632298434958e-06
7.31119013623798e-06
7.31713751767359e-06
7.31937983798429e-06
7.32017992718172e-06
7.320451081639e-06
7.32053859209418e-06
7.32056548382419e-06
7.32057327981673e-06
7.32057531764177e-06
7.32057569739219e-06
7.32057562751305e-06
7.32057544841977e-06
7.32057525401073e-06
7.320575067272e-06
7.32057489380281e-06
7.32057473345339e-06
7.3205745802178e-06
7.32057441018393e-06
7.32057413395632e-06
7.32057342547441e-06
7.32057113171866e-06
7.32056332419347e-06
7.32053716215247e-06
7.32045253710149e-06
7.32019021525368e-06
7.31941437872032e-06
7.31723359705556e-06
7.31143107561735e-06
7.2968788597055e-06
7.26263451975024e-06
7.18737227191684e-06
7.03358994446148e-06
6.74269057270086e-06
6.23507067773642e-06
5.42012235291115e-06
4.21851640052186e-06
2.59282213496605e-06
7.92369723449894e-09
3.02924153346527e-11
2.99024617414472e-11
7.86011804738047e-09
2.57992417599281e-06
4.20285687534606e-06
5.40485138527297e-06