/*--------------------------------*- C++ -*----------------------------------*\
  =========                 |
  \\      /  F ield         | OpenFOAM: The Open Source CFD Toolbox
   \\    /   O peration     | Website:  https://openfoam.org
    \\  /    A nd           | Version:  10
     \\/     M anipulation  |
\*---------------------------------------------------------------------------*/
FoamFile
{
    format      ascii;
    class       volScalarField;
    location    "4.6";
    object      h;
}
// * * * * * * * * * * * * * * * * * * * * * * * * * * * * * * * * * * * * * //

dimensions      [0 2 -2 0 0 0 0];

internalField   nonuniform List<scalar> 
2500
(
6731.45433145044
6716.76159200634
6698.54010210801
6687.98759230158
6682.74164578534
6680.26715780684
6679.14372268233
6678.65534660658
6678.45333535832
6678.37479190419
6678.34445615932
6678.3332122122
6678.32906066616
6678.32687568919
6678.32545898224
6678.32415809822
6678.32348164451
6678.32269193926
6678.3218115533
6678.32118748241
6678.32064020162
6678.32014853511
6678.3197352891
6678.31948917284
6678.31923335918
6678.31899296995
6678.31890041053
6678.31883872832
6678.31882704953
6678.31890677661
6678.31904980043
6678.31931997994
6678.31969589715
6678.3201761969
6678.32070167761
6678.32137051377
6678.32240505668
6678.3242278841
6678.32919144893
6678.34152817769
6678.37414273914
6678.45865078099
6678.66882356149
6679.16680545839
6680.29601520316
6682.75499653906
6687.96735719143
6698.5432916773
6716.97855182278
6731.31530782407
5446.42357424587
5390.49682720631
5339.22001675527
5309.03475428042
5293.15278657544
5285.18390545831
5281.3417825054
5279.57832230457
5278.81390992164
5278.50219955266
5278.38184386686
5278.33790281075
5278.32265875508
5278.31727929199
5278.31520328858
5278.3141438702
5278.31364143794
5278.3131777459
5278.31268368321
5278.31229677328
5278.31193067266
5278.31156375897
5278.31124118947
5278.31104758301
5278.3108821093
5278.31071494481
5278.3106415241
5278.31058381594
5278.31051554144
5278.31054454548
5278.31060727702
5278.31070163288
5278.31101664269
5278.3114584468
5278.3119016311
5278.31273342052
5278.31494521283
5278.32113067537
5278.33901189119
5278.38829462612
5278.51906463202
5278.84918663777
5279.63857480925
5281.42513369705
5285.265706002
5293.17557720891
5308.9667404314
5339.27255812093
5391.30554517189
5446.32113417374
4244.09896833832
4163.12704213319
4097.32754772142
4059.33412856436
4039.44265683404
4029.47853137312
4024.67067570398
4022.45730383443
4021.49347898223
4021.09808917114
4020.94498696574
4020.88903965199
4020.86974753849
4020.86329897538
4020.86113594624
4020.86033130051
4020.86003270351
4020.85982137296
4020.8596021599
4020.85941505505
4020.85921289682
4020.85897783948
4020.85875454746
4020.85862109806
4020.85852811193
4020.85842664617
4020.85838289062
4020.85834157953
4020.85826272969
4020.85825485642
4020.85825230537
4020.85823321697
4020.85847949947
4020.85885564598
4020.85917566034
4020.85995708409
4020.86246804008
4020.87003785346
4020.89220366674
4020.95402078734
4021.11838585265
4021.53295014944
4022.52242620749
4024.7581361897
4029.56067959254
4039.46384863681
4059.29261041056
4097.56568481711
4164.63303321296
4245.74196199042
3298.47721058837
3217.72061415756
3159.68613052773
3127.40234360618
3111.12056326629
3103.24647349737
3099.55565620107
3097.89293029538
3097.17998083349
3096.89061161635
3096.77945177788
3096.73910298218
3096.72531936007
3096.72081572586
3096.71939074749
3096.71895178206
3096.71884110701
3096.7187839096
3096.71872021823
3096.71865637267
3096.71856765158
3096.71843841335
3096.71829963192
3096.71821479532
3096.71816973352
3096.71811820406
3096.71809735199
3096.71807532817
3096.7180216574
3096.71800701526
3096.71798588441
3096.71791839396
3096.71806383668
3096.71830333075
3096.71845985998
3096.7189175514
3096.72054724336
3096.72568829249
3096.74104497569
3096.78456410635
3096.90188960805
3097.20206213173
3097.93006201651
3099.60698928857
3103.29777276591
3111.14642951845
3127.44298645545
3160.11640891424
3219.59343056824
3301.86296984598
2653.20931646869
2589.24655213806
2547.71320796163
2525.45900559528
2514.6420839342
2509.58813499875
2507.2840782957
2506.26607993999
2505.83488781845
2505.66106848121
2505.59451596895
2505.57040442325
2505.56220301175
2505.55955521227
2505.55875596199
2505.55856725938
2505.55855978462
2505.55856136578
2505.55855811166
2505.55855315969
2505.55852974062
2505.55847210475
2505.55839487194
2505.55834626346
2505.55833092357
2505.55831345526
2505.5583067254
2505.5582973823
2505.55826972234
2505.55825771682
2505.55823397989
2505.55816453574
2505.55823325769
2505.55834243767
2505.55838795428
2505.55862783997
2505.55952776602
2505.56243271643
2505.57126487354
2505.59658086372
2505.66547723588
2505.84354436255
2506.28076090456
2507.30442279195
2509.60820156213
2514.65538211477
2525.51884860562
2548.14494686884
2590.99247357024
2657.17916611119
2262.55157072508
2219.71356849916
2194.2187088339
2181.03301906573
2174.83726725373
2172.03283252307
2170.78651772979
2170.24520013897
2170.01809058994
2169.92689369032
2169.89197955451
2169.87931516053
2169.8750130608
2169.87363501268
2169.87325048226
2169.87319124247
2169.87320781028
2169.87322767946
2169.87324064478
2169.87324289206
2169.87324262887
2169.87322810955
2169.87318850081
2169.8731644974
2169.87316526018
2169.87316412299
2169.87316224653
2169.87315864603
2169.87314777227
2169.87313970609
2169.87312066838
2169.87306996081
2169.87309594546
2169.87313115874
2169.8731312808
2169.87324713026
2169.87368825999
2169.87513783182
2169.87962068857
2169.89257526541
2169.92803361404
2170.02027030912
2170.24875226211
2170.79080612607
2172.03497739236
2174.83663211706
2181.07224264307
2194.53315134115
2221.02838651252
2266.02011568044
2049.11460311773
2023.96723088491
2010.10092028841
2003.16178934275
1999.99883103949
1998.60758108933
1998.00353396957
1997.74513545921
1997.63753767669
1997.59440727167
1997.57786175683
1997.5718411687
1997.56979502057
1997.56914637949
1997.56898360833
1997.56897192042
1997.56898688926
1997.56900547616
1997.5690188201
1997.56902161642
1997.5690258752
1997.56902558721
1997.5690075898
1997.56899812703
1997.56900324408
1997.56900616007
1997.56900673363
1997.56900559591
1997.56900098807
1997.56899620036
1997.56898391957
1997.56895336667
1997.56896060196
1997.56896873872
1997.56896031376
1997.56901089906
1997.56920572502
1997.56986260344
1997.57193301838
1997.57795094864
1997.59446725324
1997.63756953331
1997.74495488971
1998.00237857238
1998.60349875407
1999.99137253347
2003.1764940965
2010.28428602311
2024.80593492872
2051.60120244834
1942.45144971721
1929.2018711245
1922.37104051513
1919.05616486183
1917.58574036089
1916.95537617641
1916.68745528478
1916.57440914519
1916.52762320555
1916.50887486869
1916.50165849669
1916.49902123524
1916.49812379857
1916.49784368133
1916.49778026303
1916.49778086406
1916.49779144318
1916.49780352185
1916.4978126109
1916.49781647391
1916.49781883274
1916.4978194757
1916.4978137443
1916.49781123102
1916.49781543281
1916.49781796353
1916.49781891979
1916.49781846819
1916.49781637976
1916.49781387835
1916.49780714067
1916.49779115432
1916.49779185659
1916.49779203944
1916.49778532754
1916.49780508711
1916.49788394362
1916.49816029281
1916.49904717108
1916.50163464419
1916.50873712221
1916.52728078943
1916.57362149361
1916.68558896055
1916.95098053711
1917.5777361697
1919.05684686548
1922.46074939355
1929.66974902499
1943.98802148122
1893.15836025656
1886.78566301467
1883.68850156086
1882.22828997082
1881.59620287054
1881.3314006959
1881.22102954867
1881.17504414899
1881.15611010939
1881.14851792059
1881.14558354295
1881.14450590465
1881.14413856043
1881.14402624987
1881.14400340593
1881.14400557251
1881.14401163789
1881.14401817816
1881.14402325176
1881.14402594502
1881.14402707872
1881.1440273086
1881.14402633866
1881.14402674949
1881.14402879526
1881.14403018736
1881.14403074328
1881.14403063359
1881.14402976725
1881.14402842211
1881.14402515119
1881.14401812607
1881.14401725982
1881.14401637568
1881.14401281853
1881.14401898752
1881.144048568
1881.14415785092
1881.1445146819
1881.14555807918
1881.14841666589
1881.15586591563
1881.17449434834
1881.21975877978
1881.32843100584
1881.59035848249
1882.22442135516
1883.72614150671
1887.01915301567
1894.0018276561
1871.90099050916
1869.06685449545
1867.7584473474
1867.15818239394
1866.90403254491
1866.79973817234
1866.75704022906
1866.73945834488
1866.73225191925
1866.72935886483
1866.7282356946
1866.72782114059
1866.72767956559
1866.72763722317
1866.72762957201
1866.72763114553
1866.72763417174
1866.72763731203
1866.72763980376
1866.7276412971
1866.72764202022
1866.72764227275
1866.72764231352
1866.72764285884
1866.72764377357
1866.72764440537
1866.72764465011
1866.72764463041
1866.72764427157
1866.72764360783
1866.7276421564
1866.72763926349
1866.72763846664
1866.72763775441
1866.72763621135
1866.72763768161
1866.72764791608
1866.72768919729
1866.72782534088
1866.72822377549
1866.72931145936
1866.73213500937
1866.739186358
1866.75638235553
1866.79811709055
1866.90056336123
1867.15438822072
1867.77202951713
1869.17284040615
1872.32077704232
1863.28183148015
1862.10462240926
1861.58467672424
1861.35222776991
1861.25578121853
1861.21693085858
1861.20128523641
1861.19491350093
1861.19231272136
1861.19126713851
1861.19085938371
1861.19070815448
1861.19065643065
1861.19064135598
1861.19063895861
1861.19063974446
1861.19064110345
1861.19064248006
1861.1906435926
1861.19064431769
1861.19064474582
1861.19064495274
1861.19064507676
1861.1906453731
1861.19064575141
1861.19064600743
1861.19064610046
1861.19064609319
1861.19064594519
1861.19064564651
1861.19064504792
1861.19064392412
1861.1906434647
1861.19064305258
1861.19064248665
1861.19064270709
1861.19064601499
1861.19066090611
1861.19071051194
1861.19085563959
1861.19124991652
1861.19226795294
1861.19480254794
1861.20099479443
1861.21615878427
1861.25399232365
1861.349743283
1861.58878779464
1862.1489366038
1863.4740871085
1859.97492867404
1859.51453640368
1859.31869768937
1859.2332619292
1859.19846824177
1859.1846849774
1859.17921724842
1859.17701352064
1859.17611756936
1859.1757568526
1859.17561557385
1859.17556294019
1859.17554491884
1859.17553978939
1859.17553908001
1859.17553943895
1859.17554000163
1859.1755405617
1859.17554102134
1859.1755413391
1859.17554154987
1859.17554166839
1859.17554174851
1859.17554188177
1859.17554202786
1859.17554212376
1859.17554215559
1859.17554214959
1859.17554208994
1859.17554196632
1859.17554173425
1859.17554132082
1859.17554110194
1859.17554089994
1859.17554067191
1859.17554065803
1859.17554170395
1859.17554685438
1859.17556421109
1859.17561491797
1859.1757518974
1859.17610329895
1859.17697428918
1859.1791025807
1859.18435201732
1859.1976383638
1859.23192523679
1859.31963996915
1859.53176990636
1860.05687384892
1858.76784243656
1858.59718693527
1858.52684689893
1858.49685977966
1858.48485685518
1858.48017305879
1858.47834034931
1858.47760886869
1858.47731261824
1858.47719318885
1858.47714622614
1858.47712865828
1858.4771226373
1858.47712095831
1858.47712076098
1858.47712091137
1858.47712112854
1858.47712134192
1858.47712151933
1858.47712164713
1858.4771217374
1858.47712179312
1858.47712183282
1858.4771218867
1858.4771219397
1858.47712197343
1858.4771219834
1858.47712197932
1858.47712195635
1858.47712190869
1858.47712182343
1858.47712167858
1858.47712158615
1858.47712149809
1858.47712140498
1858.47712137438
1858.4771216976
1858.4771234199
1858.47712927655
1858.47714634622
1858.47719217306
1858.47730889196
1858.47759659924
1858.47829874334
1858.48004007286
1858.48450280135
1858.49622687855
1858.52692871622
1858.6034680729
1858.80063833284
1858.34668789611
1858.28640035811
1858.26218972754
1858.25208819901
1858.2481093782
1858.24657771423
1858.245985789
1858.24575168139
1858.24565722395
1858.24561910273
1858.24560405795
1858.24559840855
1858.24559646982
1858.24559593809
1858.24559588546
1858.24559594273
1858.24559602094
1858.24559609712
1858.24559616119
1858.24559620869
1858.24559624336
1858.24559626613
1858.2455962829
1858.24559630284
1858.24559632087
1858.24559633191
1858.2455963346
1858.24559633276
1858.2455963246
1858.2455963072
1858.24559627747
1858.24559622904
1858.24559619358
1858.24559615887
1858.24559612289
1858.24559610596
1858.24559620501
1858.24559676488
1858.24559867766
1858.24560423389
1858.24561905317
1858.24565651165
1858.24574826622
1858.24597163863
1858.24652774407
1858.24796832591
1858.25181542926
1858.26211753243
1858.28855872949
1858.35910102126
1858.20566694566
1858.18527431021
1858.17725648251
1858.17397712938
1858.17270464189
1858.17222076737
1858.17203584312
1858.17196331891
1858.17193416378
1858.1719223866
1858.17191772279
1858.17191596462
1858.17191535972
1858.17191519607
1858.17191518111
1858.17191519924
1858.17191522498
1858.17191525003
1858.17191527131
1858.17191528735
1858.17191529922
1858.1719153073
1858.17191531336
1858.17191532001
1858.17191532563
1858.17191532883
1858.17191532954
1858.17191532891
1858.17191532613
1858.17191532029
1858.17191531058
1858.17191529529
1858.17191528303
1858.17191527085
1858.17191525836
1858.17191525195
1858.17191528314
1858.17191546147
1858.17191606856
1858.17191782301
1858.17192246961
1858.17193412327
1858.17196247495
1858.1720312549
1858.17220289341
1858.1726515749
1858.17386795924
1858.17719572596
1858.18597682811
1858.2101365792
1858.1601900199
1858.15355894319
1858.15099563182
1858.14996613878
1858.14957218139
1858.14942402761
1858.14936796614
1858.1493461474
1858.14933740599
1858.14933387145
1858.14933246641
1858.14933193378
1858.14933174911
1858.14933169787
1858.14933169189
1858.14933169669
1858.14933170374
1858.14933171069
1858.14933171664
1858.14933172109
1858.14933172436
1858.14933172656
1858.14933172819
1858.14933172999
1858.14933173143
1858.14933173214
1858.14933173229
1858.14933173211
1858.1493317313
1858.14933172963
1858.14933172687
1858.14933172258
1858.14933171908
1858.14933171568
1858.14933171232
1858.14933171104
1858.14933172219
1858.14933177895
1858.14933196744
1858.14933250714
1858.14933392434
1858.14933744917
1858.14934596209
1858.14936652343
1858.14941788442
1858.14955316475
1858.14992502317
1858.15096337029
1858.15377629797
1858.16172865811
1858.14602225455
1858.14394234622
1858.14314901963
1858.14283559341
1858.14271718553
1858.14267309983
1858.14265656232
1858.14265016885
1858.14264761425
1858.14264657919
1858.14264616504
1858.14264600603
1858.14264594942
1858.14264593217
1858.14264592827
1858.14264592791
1858.14264592862
1858.14264592946
1858.14264593017
1858.14264593064
1858.14264593085
1858.14264593087
1858.14264593084
1858.14264593095
1858.14264593103
1858.14264593102
1858.14264593097
1858.14264593091
1858.14264593079
1858.14264593057
1858.14264593015
1858.1426459294
1858.14264592901
1858.14264592885
1858.14264592886
1858.14264592986
1858.14264593491
1858.14264595376
1858.1426460123
1858.14264617559
1858.14264659824
1858.14264763838
1858.14265012934
1858.14265611298
1858.14267105419
1858.14271064952
1858.14282088404
1858.14313475941
1858.14400643056
1858.1465307555
1858.14174669387
1858.14111554285
1858.140877296
1858.14078453188
1858.14074989588
1858.14073711519
1858.14073235584
1858.14073052503
1858.14072979373
1858.14072949543
1858.140729374
1858.14072932556
1858.1407293067
1858.14072929935
1858.14072929608
1858.14072929412
1858.14072929269
1858.14072929151
1858.14072929048
1858.14072928955
1858.14072928871
1858.14072928796
1858.14072928734
1858.14072928688
1858.14072928654
1858.1407292863
1858.14072928618
1858.1407292862
1858.14072928634
1858.14072928658
1858.14072928692
1858.14072928733
1858.14072928801
1858.14072928893
1858.14072929012
1858.14072929187
1858.14072929507
1858.14072930257
1858.1407293219
1858.14072937188
1858.1407294968
1858.14072979838
1858.14073051172
1858.14073221203
1858.14073644849
1858.14074772742
1858.14077949676
1858.14087164395
1858.14113357367
1858.14190860975
1858.14049381102
1858.14030805869
1858.14023850031
1858.14021175239
1858.1402018685
1858.14019824938
1858.14019690854
1858.14019639318
1858.1401961857
1858.14019609904
1858.14019606184
1858.14019604526
1858.14019603723
1858.1401960327
1858.14019602958
1858.14019602708
1858.14019602497
1858.14019602313
1858.14019602154
1858.14019602015
1858.14019601896
1858.14019601795
1858.14019601712
1858.14019601647
1858.140196016
1858.14019601569
1858.14019601555
1858.1401960156
1858.14019601582
1858.14019601622
1858.14019601681
1858.14019601759
1858.14019601862
1858.14019601992
1858.14019602152
1858.14019602351
1858.14019602618
1858.14019603035
1858.14019603817
1858.14019605495
1858.14019609309
1858.14019618079
1858.14019638284
1858.14019685733
1858.14019803234
1858.14020116807
1858.14021009245
1858.1402364252
1858.14031289917
1858.14054363646
1858.14013655197
1858.14008343095
1858.14006366507
1858.14005613522
1858.14005337532
1858.14005237029
1858.14005199782
1858.14005185289
1858.14005179245
1858.14005176518
1858.14005175165
1858.14005174403
1858.14005173904
1858.14005173528
1858.14005173218
1858.1400517295
1858.14005172716
1858.14005172511
1858.14005172333
1858.14005172179
1858.14005172047
1858.14005171936
1858.14005171846
1858.14005171775
1858.14005171723
1858.14005171691
1858.14005171676
1858.14005171682
1858.14005171707
1858.14005171753
1858.1400517182
1858.1400517191
1858.14005172026
1858.14005172169
1858.14005172343
1858.14005172551
1858.14005172805
1858.14005173127
1858.14005173579
1858.14005174309
1858.14005175654
1858.1400517838
1858.1400518423
1858.14005197447
1858.14005229588
1858.14005315097
1858.14005560365
1858.14006294573
1858.14008466646
1858.14015140627
1858.14003723045
1858.14002246143
1858.14001699988
1858.14001492452
1858.14001416577
1858.14001388936
1858.14001378512
1858.1400137423
1858.14001372227
1858.14001371134
1858.14001370433
1858.14001369919
1858.14001369503
1858.14001369148
1858.14001368837
1858.14001368562
1858.1400136832
1858.14001368107
1858.14001367921
1858.14001367761
1858.14001367624
1858.1400136751
1858.14001367416
1858.14001367343
1858.1400136729
1858.14001367256
1858.14001367242
1858.14001367248
1858.14001367275
1858.14001367323
1858.14001367394
1858.14001367488
1858.14001367609
1858.14001367757
1858.14001367936
1858.14001368149
1858.14001368399
1858.14001368695
1858.14001369055
1858.14001369519
1858.14001370177
1858.14001371232
1858.14001373139
1858.14001377011
1858.14001385905
1858.1400140909
1858.14001475615
1858.14001676046
1858.14002275699
1858.14004152739
1858.14001026305
1858.14000628701
1858.14000483206
1858.14000426864
1858.14000405949
1858.14000398183
1858.14000395039
1858.14000393519
1858.14000392609
1858.14000391958
1858.14000391436
1858.14000390989
1858.14000390595
1858.14000390245
1858.14000389933
1858.14000389655
1858.14000389409
1858.14000389193
1858.14000389004
1858.14000388841
1858.14000388702
1858.14000388586
1858.14000388491
1858.14000388417
1858.14000388363
1858.14000388329
1858.14000388315
1858.14000388322
1858.14000388349
1858.14000388398
1858.14000388471
1858.14000388567
1858.1400038869
1858.14000388841
1858.14000389023
1858.14000389237
1858.14000389487
1858.14000389776
1858.14000390111
1858.14000390501
1858.14000390971
1858.1400039157
1858.14000392415
1858.14000393786
1858.14000396482
1858.14000403018
1858.14000421323
1858.14000475348
1858.14000634926
1858.14001146789
1858.14000310086
1858.14000208666
1858.14000172768
1858.14000157419
1858.14000151288
1858.14000148838
1858.14000147635
1858.14000146852
1858.14000146235
1858.14000145704
1858.1400014523
1858.14000144802
1858.14000144415
1858.14000144066
1858.14000143752
1858.14000143473
1858.14000143226
1858.14000143008
1858.14000142818
1858.14000142653
1858.14000142513
1858.14000142396
1858.140001423
1858.14000142226
1858.14000142171
1858.14000142137
1858.14000142124
1858.1400014213
1858.14000142158
1858.14000142208
1858.14000142282
1858.14000142379
1858.14000142504
1858.14000142656
1858.14000142839
1858.14000143054
1858.14000143305
1858.14000143592
1858.14000143919
1858.14000144289
1858.14000144707
1858.14000145183
1858.14000145744
1858.14000146456
1858.14000147531
1858.14000149708
1858.14000155286
1858.1400017006
1858.14000209406
1858.14000342506
1858.14000123765
1858.14000101742
1858.14000095163
1858.14000090702
1858.14000088471
1858.14000087418
1858.14000086727
1858.14000086138
1858.140000856
1858.14000085102
1858.14000084642
1858.14000084219
1858.14000083834
1858.14000083485
1858.14000083172
1858.14000082892
1858.14000082644
1858.14000082425
1858.14000082234
1858.14000082069
1858.14000081929
1858.14000081811
1858.14000081715
1858.1400008164
1858.14000081586
1858.14000081552
1858.14000081539
1858.14000081546
1858.14000081574
1858.14000081625
1858.14000081699
1858.14000081797
1858.14000081922
1858.14000082075
1858.14000082259
1858.14000082475
1858.14000082726
1858.14000083013
1858.14000083337
1858.14000083701
1858.14000084104
1858.14000084546
1858.14000085031
1858.14000085571
1858.14000086227
1858.14000087285
1858.14000089571
1858.14000094045
1858.14000101277
1858.1400013175
1858.1400007624
1858.14000075041
1858.1400007614
1858.14000074512
1858.14000073289
1858.14000072596
1858.14000072037
1858.14000071499
1858.14000070982
1858.14000070493
1858.14000070038
1858.14000069617
1858.14000069233
1858.14000068885
1858.14000068571
1858.14000068292
1858.14000068043
1858.14000067825
1858.14000067634
1858.14000067469
1858.14000067328
1858.14000067211
1858.14000067115
1858.1400006704
1858.14000066986
1858.14000066953
1858.14000066939
1858.14000066947
1858.14000066975
1858.14000067026
1858.140000671
1858.14000067199
1858.14000067325
1858.14000067478
1858.14000067662
1858.14000067878
1858.14000068129
1858.14000068416
1858.14000068739
1858.14000069101
1858.14000069499
1858.14000069932
1858.14000070397
1858.14000070892
1858.14000071443
1858.14000072219
1858.14000073672
1858.14000075501
1858.14000074341
1858.14000077614
1858.14000064365
1858.14000068518
1858.1400007158
1858.14000070667
1858.14000069695
1858.1400006909
1858.14000068561
1858.14000068035
1858.14000067522
1858.14000067036
1858.14000066581
1858.14000066161
1858.14000065778
1858.1400006543
1858.14000065118
1858.14000064839
1858.14000064591
1858.14000064373
1858.14000064183
1858.14000064018
1858.14000063878
1858.14000063761
1858.14000063666
1858.14000063592
1858.14000063538
1858.14000063505
1858.14000063492
1858.14000063499
1858.14000063528
1858.14000063579
1858.14000063654
1858.14000063753
1858.14000063878
1858.14000064031
1858.14000064215
1858.14000064431
1858.14000064682
1858.14000064968
1858.14000065291
1858.14000065652
1858.14000066049
1858.1400006648
1858.14000066941
1858.14000067427
1858.14000067954
1858.14000068665
1858.14000069917
1858.14000071087
1858.14000067787
1858.14000063998
1858.14000061492
1858.14000066995
1858.14000070535
1858.14000069787
1858.14000068866
1858.14000068274
1858.14000067747
1858.1400006722
1858.14000066706
1858.14000066218
1858.14000065763
1858.14000065344
1858.14000064961
1858.14000064615
1858.14000064304
1858.14000064026
1858.1400006378
1858.14000063563
1858.14000063374
1858.1400006321
1858.14000063071
1858.14000062955
1858.1400006286
1858.14000062787
1858.14000062734
1858.14000062701
1858.14000062688
1858.14000062696
1858.14000062725
1858.14000062776
1858.1400006285
1858.14000062949
1858.14000063074
1858.14000063227
1858.1400006341
1858.14000063626
1858.14000063876
1858.14000064161
1858.14000064485
1858.14000064845
1858.14000065243
1858.14000065675
1858.14000066138
1858.14000066626
1858.14000067153
1858.14000067857
1858.14000069071
1858.14000070095
1858.14000066275
1858.14000060686
1858.14000060869
1858.14000066706
1858.1400007034
1858.1400006961
1858.14000068685
1858.14000068083
1858.14000067547
1858.14000067012
1858.14000066493
1858.14000066003
1858.14000065547
1858.14000065128
1858.14000064746
1858.14000064401
1858.14000064092
1858.14000063816
1858.14000063572
1858.14000063357
1858.14000063169
1858.14000063007
1858.1400006287
1858.14000062755
1858.14000062661
1858.14000062589
1858.14000062537
1858.14000062504
1858.14000062492
1858.140000625
1858.14000062529
1858.1400006258
1858.14000062654
1858.14000062752
1858.14000062877
1858.14000063029
1858.14000063211
1858.14000063426
1858.14000063674
1858.1400006396
1858.14000064282
1858.14000064644
1858.14000065043
1858.14000065478
1858.14000065946
1858.14000066442
1858.14000066979
1858.14000067694
1858.14000068918
1858.1400006993
1858.14000066005
1858.14000059965
1858.14000060817
1858.14000066736
1858.1400007036
1858.14000069603
1858.14000068653
1858.1400006803
1858.14000067478
1858.14000066933
1858.14000066406
1858.14000065912
1858.14000065454
1858.14000065035
1858.14000064654
1858.14000064311
1858.14000064004
1858.14000063731
1858.14000063489
1858.14000063276
1858.14000063091
1858.14000062932
1858.14000062796
1858.14000062682
1858.14000062591
1858.14000062519
1858.14000062468
1858.14000062436
1858.14000062425
1858.14000062433
1858.14000062462
1858.14000062512
1858.14000062586
1858.14000062683
1858.14000062807
1858.14000062958
1858.14000063139
1858.14000063352
1858.14000063599
1858.14000063883
1858.14000064206
1858.14000064568
1858.1400006497
1858.1400006541
1858.14000065886
1858.14000066393
1858.14000066946
1858.14000067682
1858.14000068932
1858.14000069974
1858.14000066058
1858.14000059905
1858.14000060929
1858.14000066867
1858.14000070445
1858.14000069641
1858.14000068653
1858.14000068003
1858.1400006743
1858.14000066869
1858.14000066333
1858.14000065833
1858.14000065373
1858.14000064954
1858.14000064575
1858.14000064234
1858.1400006393
1858.1400006366
1858.14000063421
1858.14000063212
1858.1400006303
1858.14000062873
1858.14000062739
1858.14000062628
1858.14000062538
1858.14000062468
1858.14000062418
1858.14000062387
1858.14000062376
1858.14000062384
1858.14000062413
1858.14000062463
1858.14000062536
1858.14000062632
1858.14000062754
1858.14000062903
1858.14000063083
1858.14000063294
1858.1400006354
1858.14000063823
1858.14000064145
1858.14000064508
1858.14000064913
1858.14000065359
1858.14000065845
1858.14000066367
1858.14000066942
1858.14000067707
1858.14000068995
1858.14000070085
1858.14000066215
1858.14000060034
1858.14000061111
1858.14000067052
1858.14000070563
1858.14000069696
1858.1400006866
1858.14000067974
1858.14000067375
1858.14000066796
1858.14000066249
1858.14000065742
1858.14000065279
1858.1400006486
1858.14000064483
1858.14000064145
1858.14000063845
1858.14000063578
1858.14000063344
1858.14000063138
1858.14000062959
1858.14000062806
1858.14000062675
1858.14000062567
1858.14000062479
1858.1400006241
1858.14000062362
1858.14000062332
1858.14000062321
1858.1400006233
1858.14000062358
1858.14000062408
1858.14000062479
1858.14000062574
1858.14000062694
1858.14000062842
1858.14000063018
1858.14000063227
1858.14000063471
1858.14000063752
1858.14000064074
1858.14000064438
1858.14000064846
1858.140000653
1858.14000065798
1858.14000066338
1858.14000066939
1858.14000067741
1858.14000069077
1858.14000070232
1858.14000066428
1858.14000060239
1858.14000061345
1858.14000067283
1858.1400007071
1858.14000069762
1858.14000068667
1858.14000067937
1858.14000067306
1858.14000066706
1858.14000066145
1858.14000065632
1858.14000065166
1858.14000064748
1858.14000064373
1858.14000064039
1858.14000063743
1858.14000063481
1858.14000063251
1858.1400006305
1858.14000062876
1858.14000062726
1858.14000062598
1858.14000062493
1858.14000062407
1858.14000062341
1858.14000062294
1858.14000062265
1858.14000062255
1858.14000062264
1858.14000062292
1858.1400006234
1858.14000062411
1858.14000062504
1858.14000062622
1858.14000062766
1858.1400006294
1858.14000063146
1858.14000063387
1858.14000063666
1858.14000063987
1858.14000064351
1858.14000064764
1858.14000065225
1858.14000065737
1858.140000663
1858.14000066932
1858.14000067778
1858.14000069175
1858.1400007041
1858.1400006669
1858.14000060501
1858.14000061633
1858.14000067565
1858.14000070885
1858.14000069839
1858.1400006867
1858.14000067888
1858.14000067222
1858.14000066597
1858.14000066022
1858.14000065501
1858.14000065033
1858.14000064615
1858.14000064243
1858.14000063914
1858.14000063623
1858.14000063367
1858.14000063143
1858.14000062947
1858.14000062777
1858.14000062631
1858.14000062508
1858.14000062406
1858.14000062323
1858.14000062259
1858.14000062214
1858.14000062186
1858.14000062176
1858.14000062185
1858.14000062213
1858.14000062261
1858.14000062329
1858.1400006242
1858.14000062536
1858.14000062677
1858.14000062848
1858.1400006305
1858.14000063288
1858.14000063564
1858.14000063883
1858.14000064248
1858.14000064663
1858.14000065134
1858.14000065661
1858.14000066248
1858.14000066917
1858.14000067815
1858.14000069286
1858.1400007062
1858.14000067006
1858.1400006082
1858.14000061985
1858.14000067905
1858.14000071092
1858.14000069925
1858.14000068669
1858.14000067826
1858.14000067118
1858.14000066467
1858.14000065876
1858.14000065348
1858.14000064878
1858.14000064462
1858.14000064095
1858.14000063771
1858.14000063487
1858.14000063237
1858.14000063019
1858.14000062829
1858.14000062664
1858.14000062524
1858.14000062405
1858.14000062306
1858.14000062226
1858.14000062165
1858.14000062121
1858.14000062095
1858.14000062086
1858.14000062095
1858.14000062122
1858.14000062169
1858.14000062235
1858.14000062324
1858.14000062436
1858.14000062574
1858.14000062741
1858.14000062939
1858.14000063173
1858.14000063445
1858.14000063761
1858.14000064126
1858.14000064544
1858.14000065023
1858.14000065566
1858.1400006618
1858.14000066892
1858.1400006785
1858.14000069409
1858.14000070865
1858.14000067381
1858.14000061204
1858.14000062413
1858.14000068313
1858.14000071334
1858.14000070021
1858.1400006866
1858.14000067747
1858.14000066993
1858.14000066314
1858.14000065708
1858.14000065172
1858.14000064702
1858.14000064289
1858.14000063927
1858.1400006361
1858.14000063333
1858.14000063091
1858.1400006288
1858.14000062696
1858.14000062538
1858.14000062403
1858.14000062289
1858.14000062194
1858.14000062118
1858.14000062059
1858.14000062017
1858.14000061993
1858.14000061984
1858.14000061993
1858.1400006202
1858.14000062065
1858.14000062129
1858.14000062215
1858.14000062324
1858.14000062458
1858.1400006262
1858.14000062813