/*--------------------------------*- C++ -*----------------------------------*\
  =========                 |
  \\      /  F ield         | OpenFOAM: The Open Source CFD Toolbox
   \\    /   O peration     | Website:  https://openfoam.org
    \\  /    A nd           | Version:  10
     \\/     M anipulation  |
\*---------------------------------------------------------------------------*/
FoamFile
{
    format      ascii;
    class       volScalarField;
    location    "4.6";
    object      k;
}
// * * * * * * * * * * * * * * * * * * * * * * * * * * * * * * * * * * * * * //

dimensions      [0 2 -2 0 0 0 0];

internalField   nonuniform List<scalar> 
2500
(
1.57883636313771e-09
3.07036914704547e-08
1.2931239029917e-07
2.18351828861824e-07
2.87351494510132e-07
3.35128395244066e-07
3.64924255777529e-07
3.81772195451353e-07
3.90467746330969e-07
3.94591178336617e-07
3.96398957489393e-07
3.97135971530042e-07
3.97416837938219e-07
3.97517314115594e-07
3.97551138300238e-07
3.9756183109757e-07
3.97564952961476e-07
3.97565732601567e-07
3.97565835254474e-07
3.97565767990865e-07
3.97565670562059e-07
3.97565579476193e-07
3.97565501972469e-07
3.97565439404212e-07
3.97565392032699e-07
3.97565360572788e-07
3.97565347749754e-07
3.97565351073286e-07
3.97565358892795e-07
3.97565373927395e-07
3.97565388016112e-07
3.97565337605905e-07
3.97564992446274e-07
3.97563638088956e-07
3.97559062253635e-07
3.97544676780887e-07
3.97501935511612e-07
3.97381484289842e-07
3.97059905657351e-07
3.96249201905506e-07
3.94327581620141e-07
3.90066499240474e-07
3.81276839710737e-07
3.64513852408231e-07
3.35150846811203e-07
2.88230253112005e-07
2.20292303471469e-07
1.31823749733556e-07
3.19001184596636e-08
1.68499678817704e-09
3.86011629540438e-08
8.75378557901647e-07
3.76532449532568e-06
6.36774394976587e-06
8.39450025295186e-06
9.80795511198538e-06
1.06970562529531e-05
1.12046404378298e-05
1.14693101885778e-05
1.15961534823612e-05
1.16523642113435e-05
1.1675527882349e-05
1.16844494086488e-05
1.16876745828563e-05
1.16887717670725e-05
1.16891225137099e-05
1.16892264067189e-05
1.16892531404542e-05
1.16892572775597e-05
1.16892555877605e-05
1.1689252780929e-05
1.16892501136874e-05
1.16892478363538e-05
1.16892460000281e-05
1.16892446142664e-05
1.1689243701893e-05
1.16892433510969e-05
1.16892434614387e-05
1.1689243678208e-05
1.16892441288147e-05
1.16892444725937e-05
1.16892425426253e-05
1.1689230728564e-05
1.16891858272114e-05
1.16890360057379e-05
1.16885695284339e-05
1.1687195849424e-05
1.16833588225579e-05
1.16732071619566e-05
1.16478511195331e-05
1.15883161286245e-05
1.14575604098911e-05
1.11904096221865e-05
1.06856756834764e-05
9.80942530934863e-06
8.42063248107395e-06
6.42382229943535e-06
3.83693867163653e-06
9.08522134846621e-07
4.10690553043187e-08
1.35411217089943e-07
3.88827572247971e-06
1.88596080282358e-05
3.17668813161934e-05
4.17396441361484e-05
4.86797049705142e-05
5.30521661275043e-05
5.55593980003615e-05
5.68750589307429e-05
5.75103820068997e-05
5.77942704663335e-05
5.7912278219379e-05
5.79581357602e-05
5.7974864481052e-05
5.79806090112095e-05
5.79824643667053e-05
5.798302141705e-05
5.79831687285454e-05
5.79831945358853e-05
5.79831881901731e-05
5.79831753772845e-05
5.79831628462322e-05
5.79831520689235e-05
5.79831433559055e-05
5.79831367696379e-05
5.79831324223777e-05
5.7983130751341e-05
5.79831311702975e-05
5.79831321057715e-05
5.79831340701267e-05
5.7983135181722e-05
5.79831236690322e-05
5.79830598454174e-05
5.79828235129783e-05
5.79820421820124e-05
5.79796259838362e-05
5.79725534740219e-05
5.79529144509897e-05
5.79012663263285e-05
5.77730540816053e-05
5.74738869813443e-05
5.68208688049897e-05
5.54944026216239e-05
5.3000789788365e-05
4.86869887290414e-05
4.18583518690642e-05
3.20205719688363e-05
1.91837073478589e-05
4.01961712932597e-06
1.42556676785615e-07
2.37200566104835e-07
6.85894269829816e-06
3.32550592781462e-05
5.56593046086324e-05
7.28072081333631e-05
8.46707544497164e-05
9.21230431264423e-05
9.63930602974465e-05
9.86355740502004e-05
9.97205251873674e-05
0.000100206603582726
0.000100409296058172
0.000100488342194188
0.000100517291133854
0.000100527275276132
0.000100530516420311
0.000100531496492853
0.000100531759466825
0.000100531808210557
0.000100531799360822
0.000100531778943488
0.000100531758485196
0.000100531740778626
0.000100531726408205
0.00010053171549045
0.000100531708187765
0.000100531705155737
0.000100531705514381
0.000100531707223382
0.000100531710108715
0.000100531711702714
0.000100531691598215
0.000100531583762831
0.000100531185919368
0.000100529869383007
0.000100525791306763
0.000100513832716923
0.000100480569268569
0.000100392959060937
0.000100175199303654
9.96665599695743e-05
9.85553365350404e-05
9.62961219148386e-05
9.2043932664876e-05
8.46732857872867e-05
7.29662395618877e-05
5.6008331810857e-05
3.37024435667142e-05
7.03885016549793e-06
2.46866009306296e-07
3.34166727728094e-07
9.67002686320306e-06
4.66424033753621e-05
7.7636886980097e-05
0.000101181642975666
0.000117395720490883
0.000127557667599362
0.000133377251190856
0.000136435855720669
0.000137918075713105
0.000138583656568234
0.000138861969702545
0.000138970850587021
0.000139010867581833
0.000139024724502315
0.000139029244693988
0.000139030621101738
0.000139030995911518
0.000139031069293134
0.00013903106042035
0.000139031034734172
0.000139031008374623
0.000139030985380358
0.000139030966622989
0.000139030952274939
0.000139030942501692
0.000139030937829373
0.000139030937922136
0.000139030940491084
0.000139030943559275
0.000139030944906514
0.000139030916481559
0.000139030770493254
0.000139030234845926
0.000139028461354804
0.000139022959297421
0.000139006795190252
0.000138961751790576
0.000138842917726558
0.000138547121728094
0.00013785536027926
0.000136342486621713
0.000133263635579295
0.000127462055951953
0.000117388842652158
0.000101346310230194
7.8010146710515e-05
4.71248443251665e-05
9.86731562897322e-06
3.44973866210333e-07
4.22930491848547e-07
1.22451532918299e-05
5.87652123469206e-05
9.73567177690633e-05
0.000126493987228876
0.00014648673649998
0.00015899580435553
0.000166157823804499
0.000169925004694516
0.000171753449199585
0.000172576235111007
0.000172921160849415
0.00017305649653638
0.000173106400681891
0.000173123746613346
0.000173129431201857
0.000173131173999774
0.000173131655586934
0.000173131755019341
0.000173131748719109
0.000173131720171807
0.000173131689970421
0.000173131663361701
0.00017313164151345
0.000173131624658582
0.000173131612952879
0.000173131606752009
0.000173131606389394
0.000173131608744259
0.000173131611876457
0.000173131611952662
0.000173131575118143
0.000173131395911954
0.000173130742940266
0.000173128581863514
0.000173121870282355
0.000173102122541775
0.000173047005256024
0.000172901379341518
0.000172538425986099
0.000171688682396688
0.000169828600601386
0.000166039991801744
0.000158894391006347
0.000146471475466606
0.000126646057766863
9.77123712148678e-05
5.9230212348016e-05
1.24412762544653e-05
4.34031328682797e-07
5.01708455964049e-07
1.45360495896423e-05
6.94623674869045e-05
0.00011462736785326
0.000148560665966974
0.000171779005234117
0.000186288802850682
0.000194596194634621
0.000198969534695109
0.000201095325613677
0.000202053789368196
0.000202456536990082
0.000202614985591313
0.000202673590858106
0.000202694032978338
0.00020270076163942
0.00020270283804485
0.000202703419979168
0.000202703546317298
0.000202703544977796
0.000202703515788753
0.000202703483652781
0.000202703454984176
0.00020270343125079
0.000202703412750746
0.000202703399631664
0.000202703392160891
0.000202703390768626
0.000202703392526602
0.000202703395226842
0.000202703392991109
0.000202703347721066
0.000202703139551588
0.000202702387341623
0.000202699901056652
0.000202692174834897
0.000202669413704884
0.000202605799904922
0.000202437510846766
0.000202017603473112
0.000201033599202168
0.000198877960720042
0.000194484402673978
0.000186191902721519
0.00017176094591709
0.000148694965262112
0.000114946309225764
6.98833592883836e-05
1.47209087540579e-05
5.12599731037218e-07
5.69640834145755e-07
1.65179136536425e-05
7.86646443684409e-05
0.000129396208920297
0.000167363852771499
0.000193287358613423
0.000209474470651433
0.000218743589113439
0.000223627426985946
0.000226004666441901
0.000227078436970866
0.00022753060646908
0.000227708937124758
0.000227775080935573
0.000227798227689536
0.000227805877791288
0.000227808253141304
0.000227808927772147
0.000227809081116024
0.000227809086635441
0.000227809058661996
0.000227809026216431
0.000227808996820227
0.000227808972238962
0.000227808952839634
0.00022780893876103
0.000227808930196728
0.00022780892749105
0.000227808928336704
0.000227808930092502
0.000227808924654448
0.000227808871011748
0.000227808637722988
0.000227807802350351
0.000227805046732344
0.000227796481541258
0.000227771224470099
0.000227700554778659
0.000227513395939188
0.000227045958949597
0.000225949704819531
0.000223546624926305
0.000218646103796971
0.000209391725287387
0.000193275150726446
0.000167484749822865
0.000129676157567624
7.90340276890868e-05
1.66874886157826e-05
5.80070909320743e-07
6.26615427639141e-07
1.81865180997123e-05
8.63854304512529e-05
0.00014173091145354
0.000183026722588304
0.000211178175649878
0.000228747419057922
0.000238810689829488
0.00024411747764884
0.00024670393548942
0.000247874133120206
0.000248367869742797
0.000248563029336891
0.000248635599423139
0.000248661070565585
0.000248669520625027
0.000248672159431195
0.000248672918116245
0.000248673097770802
0.000248673111461067
0.000248673086109769
0.000248673054630993
0.000248673025564751
0.000248673000966101
0.000248672981273585
0.000248672966619025
0.000248672957126388
0.000248672952924397
0.00024867295260164
0.000248672953152812
0.000248672943723516
0.00024867288173134
0.000248672627099337
0.000248671722891975
0.000248668747476342
0.000248659499506139
0.000248632208832516
0.000248555777261372
0.000248353172950553
0.000247846751178673
0.000246658277048699
0.000244051671418843
0.000238733845310521
0.000228687305138195
0.000211181832545934
0.000183144496285343
0.000141980699203057
8.67084849877537e-05
1.83410270529144e-05
6.36515866778277e-07
6.73124703217042e-07
1.95546455055039e-05
9.27057569552677e-05
0.000151794683490731
0.00019578257842065
0.000225735231949406
0.000244423284363971
0.000255131076010687
0.000260782369755156
0.000263540003787615
0.000264789502974205
0.000265317622311081
0.000265526791139146
0.000265604748647556
0.000265632184191732
0.000265641317105629
0.000265644184106322
0.000265645017504005
0.000265645222092889
0.000265645244736592
0.000265645222905485
0.000265645193305683
0.000265645165342676
0.000265645141344745
0.000265645121823202
0.000265645106908144
0.00026564509667195
0.000265645091069264
0.000265645089164054
0.000265645087360314
0.000265645073964619
0.000265645005004697
0.000265644732007446
0.00026564377161395
0.000265640619691649
0.000265630825478634
0.000265601906805725
0.000265520853517748
0.000265305833623534
0.000264768015539633
0.000263505162882944
0.000260734239405142
0.000255079294727733
0.000244392609195933
0.000225764502966664
0.000195910038512418
0.000152029063856658
9.29952288871203e-05
1.96969413571367e-05
6.8254893907837e-07
7.10103311381577e-07
2.06477545552757e-05
9.77559349060982e-05
0.000159818011572941
0.000205940646451294
0.00023732224194753
0.000256899576900222
0.000268121217177152
0.000274048247879107
0.000276943527194233
0.000278257131679696
0.000278813208242669
0.000279033841513751
0.000279116239041129
0.000279145306565301
0.000279155012392978
0.000279158073557699
0.000279158971957818
0.000279159199646279
0.000279159231641496
0.000279159213599018
0.00027915918643364
0.000279159160072473
0.000279159137087279
0.000279159118060764
0.000279159103126743
0.000279159092325056
0.000279159085529883
0.000279159081825807
0.000279159077666618
0.000279159060627444
0.000279158985125376
0.000279158696533944
0.000279157690977173
0.000279154399733221
0.00027914417634875
0.000279113978314907
0.000279029286867014
0.000278804474488767
0.00027824185032621
0.000276920152266156
0.000274019107971978
0.000268097068294594
0.000256903100889003
0.000237385295346574
0.000206090357080276
0.000160053382132847
9.80275334801615e-05
2.07819551587014e-05
7.19172073945588e-07
7.3875936769436e-07
2.1499364755889e-05
0.00010169643259079
0.000166070256536516
0.00021385217438943
0.000246345886223269
0.000266617053492771
0.000278240980761023
0.00028438479034887
0.000287388809839988
0.000288753333311382
0.000289331748994516
0.000289561602424351
0.00028964759618854
0.00028967799615804
0.000289688174314067
0.000289691397744607
0.000289692351595977
0.000289692599929519
0.000289692640725718
0.000289692627005105
0.000289692602554024
0.000289692578065754
0.000289692556335181
0.000289692538013318
0.000289692523242059
0.000289692512039608
0.000289692504239211
0.000289692498922298
0.000289692492510834
0.000289692472030621
0.000289692390665606
0.00028969208911543
0.00028969104786973
0.000289687648637021
0.000289677094374894
0.000289645910147842
0.000289558410058853
0.000289326024311532
0.000288744184387411
0.000287376845017935
0.000284374791842033
0.00027824531967199
0.000266657324930497
0.000246448448307656
0.000214034490875776
0.000166321539890042
0.000101965455222657
2.16297841374871e-05
7.47616429805987e-07
7.60418992788493e-07
2.21467275500484e-05
0.000104700263697294
0.00017083402340691
0.000219880077933866
0.000253222775517508
0.000274025199877236
0.00028595832110479
0.000292269490318004
0.000295357885935937
0.000296762140906952
0.000297358093766589
0.000297595233093304
0.000297684089006941
0.000297715557936645
0.000297726118671899
0.000297729475275988
0.000297730475613807
0.000297730741834516
0.000297730790759381
0.000297730781322615
0.00029773075962995
0.000297730737101698
0.000297730716729415
0.000297730699227074
0.000297730684747401
0.000297730673294306
0.000297730664675265
0.000297730657956928
0.000297730649502609
0.000297730625956488
0.000297730539541354
0.000297730227465839
0.00029772915853399
0.000297725677170094
0.000297714872741051
0.000297682943228796
0.000297593317819647
0.000297355191617198
0.000296758764240479
0.000295356735301178
0.000292277848460317
0.000285990520410364
0.00027410262607619
0.000253367766834539
0.000220102050372999
0.000171112763791628
0.000104979422486128
2.22771506102163e-05
7.691997048889e-07
7.76399095108544e-07
2.26272193000343e-05
0.000106938466425394
0.000174384327470776
0.000224374404894818
0.00025835278878911
0.000279554372406918
0.000291720767113755
0.000298158800146193
0.000301311493056036
0.000302746199343332
0.000303355676880806
0.000303598472674824
0.00030368956670152
0.000303721878233029
0.000303732743403889
0.000303736207330484
0.000303737245922382
0.000303737527318242
0.000303737583446258
0.000303737577979504
0.000303737558925579
0.000303737538311161
0.000303737519299079
0.000303737502659933
0.000303737488558716
0.000303737476989844
0.000303737467742215
0.000303737459863365
0.000303737449657922
0.000303737423505365
0.000303737332896262
0.000303737012479751
0.000303735922490348
0.00030373237987464
0.000303721390041446
0.000303688908567191
0.000303597707293363
0.000303355317946623
0.000302748041301913
0.000301320182452685
0.000298184039395735
0.000291779023537098
0.000279667499806749
0.000258540408695538
0.000224639466954949
0.000174697890963051
0.000107236826701686
2.27605108196309e-05
7.85211984746314e-07
7.87916020885105e-07
2.29756910564003e-05
0.000108569484421854
0.000176973559971913
0.000227654739722176
0.000262099999716189
0.000283595879617066
0.000295935031356166
0.00030246748598332
0.000305668296318197
0.000307125926495201
0.000307745650321993
0.000307992760595556
0.000308085574215232
0.000308118538344899
0.000308129641521483
0.000308133190379582
0.000308134259819257
0.000308134553771979
0.000308134616088753
0.000308134614212208
0.000308134597575972
0.000308134578741506
0.00030813456102259
0.000308134545239631
0.000308134531570183
0.000308134520002861
0.000308134510312046
0.000308134501526475
0.000308134489900614
0.000308134461629152
0.000308134367661647
0.000308134040806043
0.000308132935133084
0.000308129347750385
0.000308118223271758
0.000308085341280472
0.000307992995285152
0.000307747504422227
0.000307132323436216
0.000305685624373584
0.000302507684856918
0.000296016714723737
0.000283741818857894
0.000262328146597677
0.000227963004605634
0.000177325203217376
0.000108892299013705
2.31136834060356e-05
7.96835612448815e-07
7.96030448751202e-07
2.32228123272206e-05
0.000109732545763699
0.000178822302263178
0.000229999579889655
0.000264781230507925
0.000286490057841314
0.000298954808538429
0.000305556269932588
0.000308792446449263
0.000310267028670878
0.000310894378926366
0.000311144722737598
0.000311238834650996
0.00031127229547418
0.000311283581490305
0.000311287196371549
0.00031128829021051
0.000311288594329013
0.000311288661843902
0.000311288663105195
0.000311288648607902
0.000311288631372432
0.000311288614841106
0.000311288599877017
0.000311288586669639
0.000311288575204357
0.000311288565244453
0.000311288555801934
0.00031128854309144
0.000311288513178392
0.000311288416624382
0.000311288084938324
0.000311286967844705
0.000311283348419008
0.000311272128150153
0.000311238961451261
0.000311145800866345
0.000310898099617546
0.000310277277344399
0.00030881711651406
0.000305609286908688
0.000299056812591582
0.000286664974629098
0.000265046116436802
0.000230348521311102
0.000179211817089212
0.00011008170353483
2.33663901341561e-05
8.05098301139146e-07
8.01623882256344e-07
2.33942977121531e-05
0.00011054460078117
0.00018011531451135
0.000231641878445712
0.000266661361984616
0.000288521440637258
0.000301075851524522
0.000307726844132567
0.000310988555251877
0.000312475453954936
0.000313108382116175
0.000313361107568749
0.000313456182890046
0.00031349001528661
0.000313501439359855
0.000313505104679854
0.000313506217477473
0.000313506529671386
0.00031350660144879
0.000313506605370842
0.000313506592717626
0.00031350657688339
0.000313506561417549
0.000313506547218852
0.0003135065344874
0.000313506523207288
0.000313506513133507
0.000313506503264341
0.000313506489783925
0.00031350645866813
0.000313506360207365
0.000313506025012434
0.000313504899804873
0.00031350125793793
0.000313489970933954
0.000313456605995357
0.000313362877564033
0.000313113633072855
0.000312488866419646
0.00031101928176469
0.000307790508442357
0.000301194909796514
0.000288721037064044
0.000266958184590623
0.000232027178905706
0.000180539959917445
0.000110919406429119
2.35435943157053e-05
8.10854301322639e-07
8.05398811542418e-07
2.35108202621448e-05
0.000111100055060933
0.000181001580789581
0.000232769424973291
0.00026795395514261
0.000289919515485023
0.000302536787796001
0.000309222705617512
0.000312502531426356
0.000313998224172115
0.000314635162150113
0.000314889611987843
0.000314985390143153
0.000315019495840605
0.000315031022410395
0.00031503472561788
0.000315035852894797
0.00031503617138421
0.000315036246593407
0.00031503625273825
0.00031503624164955
0.000315036227025715
0.000315036212504326
0.000315036199013855
0.000315036186763619
0.000315036175737469
0.000315036165684419
0.000315036155592103
0.000315036141622233
0.000315036109689197
0.000315036009898538
0.000315035672253545
0.000315034541443719
0.000315030884225808
0.000315019551726569
0.000314986051624982
0.000314891935466429
0.000314641635439047
0.000314014166683781
0.000312538117748493
0.000309294963148569
0.00030266972884983
0.000290139444752753
0.000268277518099067
0.000233185814943316
0.000181457065360935
0.00011149810338693
2.3665452356355e-05
8.14786652821462e-07
8.07894512949669e-07
2.35883884377042e-05
0.000111472424252854
0.00018159713939894
0.000233528551184229
0.000268825528665779
0.000290863333484197
0.000303523900910335
0.00031023401641583
0.0003135264721045
0.000315028337017532
0.000315668108967332
0.000315923786444727
0.000316020068828623
0.00031605437223209
0.000316065973653465
0.000316069704859745
0.000316070843013488
0.000316071166330781
0.000316071244272233
0.000316071252257785
0.000316071242480878
0.000316071228894981
0.000316071215207243
0.000316071202370318
0.000316071190600978
0.000316071179883758
0.000316071169963591
0.000316071159820215
0.000316071145599127
0.000316071113173551
0.000316071012526205
0.000316070673258848
0.000316069538716789
0.000316065871278235
0.000316054508482798
0.000316020918229276
0.000315926542906767
0.000315675535848569
0.000315046253789967
0.000313565860200618
0.000310313027929265
0.0003036678307467
0.000291099515253889
0.000269170742219528
0.000233970522027086
0.000182078492065894
0.000111890403705538
2.37476778611605e-05
8.17422894058217e-07
8.09511063371009e-07
2.36389810067731e-05
0.000111717085880387
0.000181989494618135
0.000234029720978821
0.000269401910185441
0.000291488308636449
0.000304178169794404
0.000310904759680525
0.000314205870544158
0.000315711994292353
0.000316353735738026
0.000316610272765701
0.000316706910974005
0.000316741355082321
0.000316753010295654
0.000316756761873086
0.000316757908077555
0.000316758235049934
0.000316758315156966
0.00031675832466263
0.000316758315972556
0.000316758303277492
0.000316758290329073
0.000316758278098645
0.000316758266809065
0.000316758256445676
0.000316758246750985
0.000316758236699123
0.00031675822242434
0.000316758189772821
0.000316758088648204
0.000316757748394681
0.000316756611491978
0.000316752937483926
0.000316741555071125
0.000316707906164352
0.000316613361597938
0.000316361891405488
0.000315731418579566
0.000314248166119395
0.000310988955228827
0.0003043305824486
0.000291737136541997
0.0002697641440238
0.000234492055561894
0.000182491739569534
0.000112151420931885
2.38021352051927e-05
8.19157792657761e-07
8.1053587253219e-07
2.36712763352772e-05
0.000111874455637851
0.00018224262221453
0.000234353816722132
0.000269775349847901
0.000291893823220459
0.000304603142648651
0.000311340748102902
0.000314647686341383
0.000316156698149258
0.000316799785157354
0.000317056913986843
0.000317153799173501
0.000317188341804723
0.000317200035068675
0.000317203801247466
0.000317204953333072
0.000317205283041457
0.000317205364880321
0.000317205375656013
0.000317205367834784
0.000317205355907697
0.00031720534362043
0.00031720533195729
0.000317205321145573
0.000317205311171633
0.000317205301776722
0.000317205291931129
0.000317205277761636
0.000317205245097399
0.000317205143793644
0.00031720480303651
0.000317203664769626
0.000317199986763896
0.000317188592143317
0.000317154906310346
0.000317060254400587
0.000316808488883805
0.000316177253618177
0.000314692164711746
0.000311428845769091
0.000304761969375354
0.000292152274604093
0.00027015064304754
0.000234831931367685
0.00018276123783237
0.000112321760145146
2.38375178822263e-05
8.20278170176047e-07
8.11168888323421e-07
2.36913616870873e-05
0.000111973103095498
0.00018240185120879
0.000234558253655362
0.000270011433714399
0.000292150620369948
0.000304872594753691
0.0003116174170712
0.000314928202302406
0.000316439135647662
0.00031708312512413
0.00031734065416891
0.000317437707823217
0.00031747231828719
0.000317484038037087
0.00031748781452914
0.000317488970861568
0.000317489302601247
0.00031748938578851
0.000317489397579102
0.000317489390547113
0.000317489379292665
0.000317489367605013
0.000317489356479054
0.000317489346144913
0.000317489336590011
0.000317489327555396
0.00031748931800884
0.000317489304072333
0.000317489271565238
0.000317489170315971
0.000317488829422109
0.000317487690519172
0.000317484010334791
0.000317472608649752
0.000317438900829308
0.000317344183923701
0.000317092237549193
0.00031646053146097
0.000314974301277924
0.000311708416594636
0.000305036207851489
0.000292416290027452
0.000270396587904621
0.000235048378733352
0.000182933037067542
0.000112430460021791
2.38600102573435e-05
8.20986469021198e-07
8.11544279961638e-07
2.37033539907147e-05
0.000112032504652006
0.000182498171082794
0.000234682373321997
0.000270155184759163
0.000292307332921508
0.000305037296817271
0.000311786717003741
0.00031509997619494
0.00031661215687427
0.000317256737739784
0.000317514531576356
0.000317611697797545
0.000317646354067453
0.000317658091926739
0.000317661875591285
0.000317663034957375
0.000317663368204047
0.000317663452428434
0.000317663465069509
0.000317663458729513
0.000317663448072217
0.000317663436935706
0.000317663426323214
0.00031766341646669
0.000317663407354561
0.000317663398728312
0.000317663389554293
0.000317663375951726
0.000317663343735453
0.000317663242723015
0.000317662901974282
0.000317661762980322
0.000317658081941226
0.000317646676855053
0.00031761295752862
0.000317518205026491
0.000317266156642512
0.000316634179412256
0.000315147281760795
0.000311879878746722
0.000305204485321981
0.000292578416775346
0.00027054777594491
0.000235181616082475
0.000183038969703271
0.000112497610742039
2.38738711253355e-05
8.21421154135554e-07
8.11747636405345e-07
2.37098986968006e-05
0.000112065276550995
0.000182551727515435
0.000234751825079799
0.000270236024595176
0.000292395798770867
0.000305130530302673
0.000311882733482664
0.000315197511889429
0.000316710469094155
0.000317355423153598
0.000317613386342025
0.000317710625524996
0.000317745311899706
0.000317757061853366
0.000317760850413648
0.000317762011923312
0.000317762346292886
0.000317762431331861
0.000317762444684821
0.000317762438952935
0.000317762428834195
0.00031776241821185
0.000317762408095343
0.00031776239871779
0.000317762390068602
0.000317762381890063
0.000317762373147451
0.000317762359958877
0.000317762328139164
0.000317762227508026
0.000317761887128636
0.000317760748476109
0.000317757067617789
0.000317745661934306
0.000317711938950672
0.000317617172444134
0.000317365079019519
0.000316732972974651
0.00031524574184105
0.00031197755218913
0.000305300463595284
0.000292671052664352
0.000270634369877391
0.00023525816173234
0.000183100053921426
0.000112536497778084
2.38819080068802e-05
8.21673029762135e-07
8.11828494789553e-07
2.37125372258435e-05
0.000112078832723683
0.000182574420384936
0.000234781821022259
0.000270271464152088
0.000292435021433975
0.000305172203100754
0.000311925885647831
0.000315241499066686
0.000316754895617108
0.000317400066855411
0.000317658131323463
0.000317755415350522
0.000317790120799836
0.000317801878729847
0.000317805670723169
0.000317806833884672
0.000317807169228469
0.000317807255030882
0.000317807269078172
0.000317807263956111
0.000317807254379751
0.0003178072442743
0.000317807234653914
0.000317807225753319
0.000317807217563046
0.000317807209825187
0.00031780720150444
0.000317807188718418
0.000317807157285109
0.000317807057037874
0.000317806717080385
0.000317805578988336
0.000317801899043704
0.000317790495002515
0.00031775677481019
0.000317662011921309
0.000317409919124171
0.000316777796085616
0.000315290488941814
0.000312022067410923
0.000305344397218023
0.00029271371929909
0.00027067457959894
0.000235294065119992
0.000183129047699642
0.000112555212446962
2.38858314109993e-05
8.21797317692744e-07
8.11807993072204e-07
2.37119361354591e-05
0.000112076454275381
0.00018257160613412
0.00023477928903703
0.000270269551098043
0.000292433795499233
0.000305171575619975
0.000311925705188897
0.000315241615102642
0.00031675518927717
0.000317400458253334
0.000317658572604641
0.000317755880619149
0.000317790597192511
0.000317802360300708
0.000317806154872099
0.000317807319515552
0.000317807655886539
0.000317807742553189
0.000317807757391503
0.000317807752958733
0.000317807743983112
0.000317807734432389
0.000317807725322586
0.000317807716891233
0.000317807709129791
0.000317807701779287
0.000317807693803307
0.000317807681319513
0.000317807650151399
0.000317807550157766
0.000317807210523539
0.000317806073050831
0.000317802394602817
0.000317790994324424
0.000317757283245277
0.000317662541127203
0.000317410492478294
0.00031677845636002
0.000315291306551904
0.000312023144408832
0.000305345858729363
0.000292715682986071
0.000270677097675483
0.000235297041432742
0.000183132138357916
0.000112557719763287
2.38864892022371e-05
8.21821684619229e-07
8.11683139164262e-07
2.37080143713974e-05
0.000112057844602546
0.000182542939770845
0.000234743926506969
0.000270230065472691
0.000292391992664966
0.000305128600889641
0.000311882207067798
0.000315197916320793
0.000316711431885351
0.000317356692877043
0.000317614812542552
0.000317712126788931
0.000317746847800305
0.000317758613724721
0.000317762410114044
0.000317763576038761
0.000317763913421167
0.000317764000988633
0.000317764016660312
0.000317764012940324
0.000317764004576868
0.000317763995591216
0.000317763986991553
0.000317763979018392
0.00031776397166397
0.000317763964668308
0.000317763956994034
0.000317763944759444
0.000317763913798227
0.000317763814011052
0.000317763474717531
0.000317762338106334
0.000317758662075987
0.000317747268385581
0.000317713574289637
0.000317618873472988
0.000317366919542646
0.000316735088023017
0.000315248353638624
0.000311980982507472
0.000305305106186989
0.000292677276160007
0.000270642334502577
0.000235267559105926
0.000183109797647903
0.000112544384533087
2.38839744362822e-05
8.21749474976814e-07
8.11427398795788e-07
2.36999532016079e-05
0.000112019131992391
0.000182482364395725
0.000234668180474822
0.00027014450075375
0.000292300548499287
0.000305033917669367
0.000311785888013474
0.000315100841366851
0.000316614039066263
0.000317259178956847
0.000317517257507565
0.00031761455995639
0.000317649278742338
0.00031766104512271
0.000317664842520726
0.0003176660094514
0.00031766634774846
0.000317666436177661
0.00031766645265697
0.000317666449625218
0.00031766644185427
0.000317666433418713
0.000317666425315999
0.000317666417789092
0.000317666410831493
0.000317666404182581
0.00031766639680472
0.000317666384818712
0.000317666354075602
0.000317666254541668
0.000317665915745171
0.000317664780479338
0.000317661108290466
0.000317649725190104
0.000317616058816478
0.000317521426754537
0.000317269634207675
0.000316638160537299
0.00031515217385468
0.000311886270696869
0.00030521309518946
0.00029258991153168
0.00027056243473188
0.000235198857582378
0.000183056797151962
0.000112511999610344
2.3877645395042e-05
8.21561421521311e-07
8.10985516398808e-07
2.368605393217e-05
0.000111952315269823
0.000182377281596555