/*--------------------------------*- C++ -*----------------------------------*\
  =========                 |
  \\      /  F ield         | OpenFOAM: The Open Source CFD Toolbox
   \\    /   O peration     | Website:  https://openfoam.org
    \\  /    A nd           | Version:  10
     \\/     M anipulation  |
\*---------------------------------------------------------------------------*/
FoamFile
{
    format      ascii;
    class       volScalarField;
    location    "4.6";
    object      nut;
}
// * * * * * * * * * * * * * * * * * * * * * * * * * * * * * * * * * * * * * //

dimensions      [0 2 -1 0 0 0 0];

internalField   nonuniform List<scalar> 
2500
(
1.2320216454758e-14
2.39566463949651e-13
1.00900377902458e-12
1.70380333503903e-12
2.24223460984107e-12
2.61505700216897e-12
2.84756553113388e-12
2.97903602572405e-12
3.04689030167331e-12
3.07906671794544e-12
3.09317336160733e-12
3.09892449882452e-12
3.10111618255428e-12
3.10190023648003e-12
3.10216418696381e-12
3.1022476389821e-12
3.10227200641523e-12
3.10227809866743e-12
3.10227890937434e-12
3.10227839111927e-12
3.10227763663599e-12
3.10227693096288e-12
3.10227633044661e-12
3.10227584469441e-12
3.10227547776517e-12
3.10227523479038e-12
3.10227513561359e-12
3.10227516212324e-12
3.10227522309928e-12
3.10227533947532e-12
3.10227544775241e-12
3.1022750511738e-12
3.10227235387409e-12
3.10226178057662e-12
3.10222606882847e-12
3.10211380932255e-12
3.10178028144616e-12
3.10084036399909e-12
3.09833098846736e-12
3.09200483129842e-12
3.07700985371992e-12
3.0437592865586e-12
2.97517061851842e-12
2.84436297524536e-12
2.61523205811618e-12
2.24909162324168e-12
1.71894499772454e-12
1.02859952174121e-12
2.48901507921777e-13
1.31486282903684e-14
1.2104508066295e-12
6.17738748676035e-11
2.65756811477527e-10
4.49480233972096e-10
5.92573853735927e-10
6.92368760519461e-10
7.55142215813915e-10
7.90978916977774e-10
8.09665009597197e-10
8.18620228239783e-10
8.22588699955881e-10
8.24224038373664e-10
8.24853887255404e-10
8.25081580282558e-10
8.25159040702205e-10
8.25183804234907e-10
8.25191139834508e-10
8.25193028334949e-10
8.25193321727498e-10
8.2519320348441e-10
8.25193006329024e-10
8.25192819030067e-10
8.25192659136286e-10
8.25192530025842e-10
8.25192432646436e-10
8.25192368690087e-10
8.25192344123953e-10
8.25192352068943e-10
8.25192367555769e-10
8.251923992867e-10
8.25192423384953e-10
8.25192286884305e-10
8.25191452026926e-10
8.25188281056623e-10
8.25177703334606e-10
8.25144770507437e-10
8.25047790800259e-10
8.24776902364795e-10
8.24060206058041e-10
8.22270084668271e-10
8.18066911870272e-10
8.08835451529838e-10
7.89974152432869e-10
7.54338615692171e-10
6.92472359636206e-10
5.94418502179021e-10
4.53438740187657e-10
2.7081129731862e-10
6.41125868124294e-11
1.28783912236214e-12
4.26301928083634e-12
1.10199093596144e-09
3.71266074666474e-07
6.2543408265042e-07
8.21834121139697e-07
9.58512149886799e-07
1.04462324554751e-06
1.09399985304501e-06
1.11990960950933e-06
1.13242103969971e-06
1.13801158301235e-06
1.14033545246057e-06
1.14123849379316e-06
1.14156791891616e-06
1.14168104109571e-06
1.14171757744267e-06
1.14172854729793e-06
1.1417314487641e-06
1.14173195775328e-06
1.1417318335043e-06
1.14173158196846e-06
1.14173133610595e-06
1.1417311247317e-06
1.14173095366686e-06
1.1417308243271e-06
1.14173073910697e-06
1.14173070636657e-06
1.14173071477051e-06
1.14173073348632e-06
1.14173077219457e-06
1.14173079409136e-06
1.14173056746891e-06
1.14172930980736e-06
1.14172465483104e-06
1.14170926864212e-06
1.14166168897374e-06
1.14152241658274e-06
1.14113568124291e-06
1.14011860825572e-06
1.13759378294265e-06
1.13170235052086e-06
1.11884242256191e-06
1.09271981822709e-06
1.04361131937676e-06
9.58655308889244e-07
8.24171363451416e-07
6.30428892114701e-07
3.77645925961196e-07
1.13920925052497e-09
4.4879485403389e-12
7.49087757901694e-12
1.94999060624172e-09
6.56680101350946e-07
1.0992089085916e-06
1.43793816454674e-06
1.672286039753e-06
1.81949433692137e-06
1.90384061598192e-06
1.94813666022643e-06
1.96956725365571e-06
1.97916845260192e-06
1.98317207152958e-06
1.98473339278304e-06
1.98530518942539e-06
1.98550239439417e-06
1.98556641273069e-06
1.98558577075272e-06
1.98559096509419e-06
1.98559192824196e-06
1.98559175386892e-06
1.98559135118883e-06
1.98559094796569e-06
1.98559059915412e-06
1.98559031588043e-06
1.98559010053896e-06
1.98558995664076e-06
1.98558989689052e-06
1.9855899041168e-06
1.98558993822154e-06
1.98558999530381e-06
1.98559002692373e-06
1.98558963028349e-06
1.98558749948352e-06
1.98557964015091e-06
1.9855536363674e-06
1.98547308775801e-06
1.98523688436139e-06
1.98457986818358e-06
1.98284938866693e-06
1.97854815702262e-06
1.96850132016132e-06
1.94655175879746e-06
1.90192577134528e-06
1.81793154165977e-06
1.67233575123665e-06
1.44107890285841e-06
1.10610165620514e-06
6.65513550998186e-07
2.00112573879316e-09
7.79602850300748e-12
1.05756426251888e-11
2.75489916705355e-09
9.22903253690988e-07
1.53629767295939e-06
2.00227877242503e-06
2.32317727076331e-06
2.52429419009343e-06
2.63946936032072e-06
2.70000147578427e-06
2.72933548402882e-06
2.74250762842484e-06
2.74801553838428e-06
2.75017031650618e-06
2.75096225886475e-06
2.75123648833955e-06
2.7513259426074e-06
2.75135318116046e-06
2.75136059845962e-06
2.75136205067563e-06
2.75136187512964e-06
2.75136136702246e-06
2.75136084590131e-06
2.7513603915562e-06
2.75136002079653e-06
2.75135973699222e-06
2.75135954374061e-06
2.7513594513363e-06
2.75135945325467e-06
2.75135950434257e-06
2.75135956516773e-06
2.75135959204299e-06
2.75135903015656e-06
2.75135614048574e-06
2.75134553927036e-06
2.75131044226572e-06
2.75120155684844e-06
2.75088166827038e-06
2.74999025328654e-06
2.74763850050975e-06
2.74178460171579e-06
2.72809433444884e-06
2.69815366776997e-06
2.63722083567821e-06
2.52240191958685e-06
2.32304100882205e-06
2.00553727660133e-06
1.54368352168043e-06
9.32447876505968e-07
2.81108862111938e-09
1.09175213515987e-11
1.34021504022713e-11
3.49280137998485e-09
1.16413724691816e-06
1.92871821845131e-06
2.50600343316162e-06
2.90211167892745e-06
3.14994721228397e-06
3.2918435508474e-06
3.36647976719076e-06
3.40270513766956e-06
3.41900621245171e-06
3.42583987679894e-06
3.42852113828407e-06
3.42950983349156e-06
3.42985348802218e-06
3.42996610932454e-06
3.43000063669848e-06
3.43001017746774e-06
3.43001214722921e-06
3.43001202238279e-06
3.43001145681548e-06
3.43001085864028e-06
3.43001033192676e-06
3.43000989934817e-06
3.43000956541477e-06
3.43000933351608e-06
3.43000921068525e-06
3.4300092035391e-06
3.4300092503133e-06
3.43000931245586e-06
3.43000931417928e-06
3.4300085850035e-06
3.43000503434923e-06
3.42999209755108e-06
3.42994928322076e-06
3.42981631493113e-06
3.42942507613882e-06
3.42833309961414e-06
3.42544797050098e-06
3.4182571474834e-06
3.40142199281033e-06
3.36456982712062e-06
3.28950907774909e-06
3.14793801570436e-06
2.90180931532129e-06
2.50901614513092e-06
1.93576375967909e-06
1.17334766108508e-06
3.54872792890936e-09
1.37537642445746e-11
1.5909781872514e-11
4.1489474439242e-09
1.37688795860568e-06
2.27220408902526e-06
2.94487870308716e-06
3.40514540276974e-06
3.692778001611e-06
3.85745762333122e-06
3.94415123998225e-06
3.98629113027903e-06
4.00529087459283e-06
4.01327457820919e-06
4.0164155153767e-06
4.01757725004775e-06
4.01798247421045e-06
4.01811585590273e-06
4.01815701606566e-06
4.01816855143677e-06
4.01817105564248e-06
4.01817102904846e-06
4.01817045037641e-06
4.0181698133483e-06
4.01816924528952e-06
4.01816877494732e-06
4.01816840815082e-06
4.01816814804996e-06
4.01816799994624e-06
4.01816797235904e-06
4.0181680072651e-06
4.01816806085207e-06
4.01816801669375e-06
4.01816711971456e-06
4.01816299309347e-06
4.01814808200325e-06
4.01809879674768e-06
4.01794563999061e-06
4.01749444590821e-06
4.01623342749691e-06
4.01289742366355e-06
4.00457356414539e-06
3.98506753333366e-06
3.94233597861011e-06
3.85524158656643e-06
3.69085717736576e-06
3.40478746207376e-06
2.9475409552568e-06
2.27852620177073e-06
1.38523204526708e-06
4.20169912472969e-09
1.62550233185642e-11
1.80703919460095e-11
4.71610267401437e-09
1.55975000116414e-06
2.56567557772037e-06
3.31851642542117e-06
3.83253973526592e-06
4.15350466656368e-06
4.33729635946883e-06
4.43413486743559e-06
4.48127158426266e-06
4.50256265670125e-06
4.51152841535406e-06
4.51506440943927e-06
4.51637592810371e-06
4.51683488813374e-06
4.516986576072e-06
4.51703367488769e-06
4.5170470514356e-06
4.51705009183217e-06
4.5170502012101e-06
4.5170496465065e-06
4.51704900315442e-06
4.51704842036129e-06
4.51704793299169e-06
4.5170475482701e-06
4.51704726907415e-06
4.51704709924071e-06
4.51704704559458e-06
4.51704706238974e-06
4.51704709723774e-06
4.51704698950807e-06
4.51704592610452e-06
4.51704130038822e-06
4.51702473642432e-06
4.51697009750353e-06
4.5168002646545e-06
4.51629946053892e-06
4.51489820173831e-06
4.51118716057792e-06
4.50191867539195e-06
4.48018179473368e-06
4.43253271096344e-06
4.33536341022491e-06
4.15186399936035e-06
3.83229773066962e-06
3.32091367900558e-06
2.57122640993424e-06
1.56707360813819e-06
4.76451137584501e-09
1.84011654736034e-11
1.98810155285948e-11
5.1932440703929e-09
1.71305634519777e-06
2.81059216120535e-06
3.62951557664023e-06
4.18777728551837e-06
4.53618653330548e-06
4.73574742388824e-06
4.8409842514381e-06
4.89227526051482e-06
4.91548097352971e-06
4.92527206108144e-06
4.92914218964754e-06
4.93058129638232e-06
4.9310864035781e-06
4.93125397288515e-06
4.93130630176541e-06
4.93132134679736e-06
4.93132490935869e-06
4.93132518079535e-06
4.93132467804171e-06
4.9313240537916e-06
4.93132347740302e-06
4.9313229895867e-06
4.93132259903503e-06
4.93132230839957e-06
4.93132212014167e-06
4.93132203681121e-06
4.9313220304206e-06
4.93132204136848e-06
4.93132185442984e-06
4.93132062520184e-06
4.93131557571904e-06
4.93129764479852e-06
4.93123864071769e-06
4.9310552482555e-06
4.93051405863392e-06
4.92899837656329e-06
4.92498061531788e-06
4.9149379748032e-06
4.89136982994655e-06
4.83967928139129e-06
4.73422356329175e-06
4.53499446037086e-06
4.18784984489467e-06
3.63185116094573e-06
2.81554560851508e-06
1.71946242621381e-06
5.23736075600672e-09
2.01950763643116e-11
2.13581502050006e-11
5.58424737465712e-09
1.83848799943368e-06
3.01031207844814e-06
3.88266007810695e-06
4.476667350767e-06
4.84728007443168e-06
5.05963192700823e-06
5.17170568242859e-06
5.22639375315099e-06
5.2511732166355e-06
5.26164662287494e-06
5.26579475711288e-06
5.26734077223482e-06
5.26788486037879e-06
5.26806597973529e-06
5.26812283660386e-06
5.26813936407073e-06
5.26814342132671e-06
5.26814387035411e-06
5.2681434373927e-06
5.26814285037466e-06
5.26814229582042e-06
5.2681418198908e-06
5.26814143272827e-06
5.2681411369243e-06
5.26814093391606e-06
5.26814082280199e-06
5.26814078502047e-06
5.26814074925673e-06
5.26814048362107e-06
5.26813911608878e-06
5.26813370215361e-06
5.26811465611803e-06
5.26805214879206e-06
5.26785791482037e-06
5.26728441395503e-06
5.26567700488969e-06
5.26141283531743e-06
5.25074708864476e-06
5.22570280642029e-06
5.17075118724346e-06
5.05860503092762e-06
4.84667175032122e-06
4.47724786278925e-06
3.88518784615119e-06
3.01496022408454e-06
1.84422855944825e-06
5.62488102077414e-09
2.16571496849114e-11
2.25321201148856e-11
5.89654415467535e-09
1.93867994099658e-06
3.16948748492344e-06
4.08418615687908e-06
4.70654218559015e-06
5.09479747451549e-06
5.31734363094431e-06
5.43488774722687e-06
5.49230655365232e-06
5.51835778750619e-06
5.52938582543689e-06
5.5337613955649e-06
5.53539549245275e-06
5.53597195569885e-06
5.5361644403408e-06
5.53622514891528e-06
5.53624296583437e-06
5.53624748129539e-06
5.53624811580151e-06
5.53624775797229e-06
5.536247219223e-06
5.53624669642426e-06
5.5362462405742e-06
5.53624586323071e-06
5.53624556705133e-06
5.53624535282691e-06
5.53624521806112e-06
5.53624514460026e-06
5.5362450621166e-06
5.53624472420448e-06
5.53624322687403e-06
5.53623750357211e-06
5.53621756150996e-06
5.53615229001193e-06
5.53594954122675e-06
5.53535065784107e-06
5.53367106822774e-06
5.52921261864375e-06
5.51805472970953e-06
5.49184298541992e-06
5.43430984920155e-06
5.31686471539525e-06
5.09486736655285e-06
4.70779266389104e-06
4.08715522132507e-06
3.17415534560164e-06
1.94406621354993e-06
5.93486801969211e-09
2.28198643130014e-11
2.34416553830227e-11
6.13979791626151e-09
2.01684237669048e-06
3.29350418028197e-06
4.2411153347427e-06
4.8855307012206e-06
5.28754851121114e-06
5.51807423818538e-06
5.63991826699456e-06
5.69949397890442e-06
5.72655520680644e-06
5.73802634583018e-06
5.7425847986741e-06
5.74429022683081e-06
5.74489311893981e-06
5.7450949720864e-06
5.74515889913479e-06
5.74517781589611e-06
5.74518274083189e-06
5.74518354989037e-06
5.74518327777363e-06
5.74518279285205e-06
5.74518230719367e-06
5.74518187622494e-06
5.74518151285758e-06
5.74518121990681e-06
5.74518099773395e-06
5.74518084303147e-06
5.74518073758258e-06
5.74518061042797e-06
5.74518020426418e-06
5.74517859063687e-06
5.74517261029464e-06
5.74515196031299e-06
5.74508454674106e-06
5.74487523464416e-06
5.74425678912712e-06
5.74252148753343e-06
5.73791281378246e-06
5.7263737652522e-06
5.69925669254395e-06
5.63971997676069e-06
5.51816028802553e-06
5.28834717609687e-06
4.88756471736115e-06
4.24473104602696e-06
3.29848764454969e-06
2.02217762377133e-06
6.17704278638524e-09
2.37226933504935e-11
2.41290354582594e-11
6.32469117488712e-09
2.07641972693636e-06
3.38798737471081e-06
4.36067091793465e-06
5.02192477143449e-06
5.43447936236039e-06
5.67113754138886e-06
5.79630092234963e-06
5.85755011748958e-06
5.88539936252966e-06
5.897218325252e-06
5.90192128254837e-06
5.90368347682343e-06
5.90430756997041e-06
5.90451701091151e-06
5.90458357921642e-06
5.90460341794875e-06
5.90460869764004e-06
5.90460966791187e-06
5.90460948075406e-06
5.90460905053741e-06
5.90460860374969e-06
5.90460819971901e-06
5.90460785260521e-06
5.90460756543754e-06
5.90460733829369e-06
5.90460716735529e-06
5.90460703411226e-06
5.90460686644181e-06
5.90460639947102e-06
5.90460468568067e-06
5.90459849658326e-06
5.9045772974791e-06
5.90450825492065e-06
5.90429398102272e-06
5.90366075357208e-06
5.90188329862054e-06
5.89716076955852e-06
5.8853323961963e-06
5.85752729792787e-06
5.79646668130555e-06
5.67177611946205e-06
5.43601488261739e-06
5.02480024743037e-06
4.36507308965201e-06
3.39351537250832e-06
2.08195601433478e-06
6.36193742874588e-09
2.440765565975e-11
2.4636137748643e-11
6.46191714970027e-09
2.12080966547822e-06
3.45839988143149e-06
4.44980599337567e-06
5.12366726650765e-06
5.54413829491153e-06
5.78542293474603e-06
5.91310237583737e-06
5.97562676267515e-06
6.00407994011231e-06
6.01616713360068e-06
6.02098227370741e-06
6.02278885566018e-06
6.02342965979676e-06
6.02364513848009e-06
6.02371383526331e-06
6.02373443267007e-06
6.02374001332188e-06
6.02374112644918e-06
6.02374101802574e-06
6.02374064014096e-06
6.02374023130853e-06
6.02373985425368e-06
6.02373952425915e-06
6.02373924459718e-06
6.02373901515709e-06
6.02373883175225e-06
6.02373867549339e-06
6.02373847309373e-06
6.02373795443044e-06
6.02373615746183e-06
6.02372980293953e-06
6.02370818620383e-06
6.02363792884329e-06
6.02341997783954e-06
6.02277580337913e-06
6.02096709448638e-06
6.01616001505825e-06
6.00411646979605e-06
5.97579909114084e-06
5.91360292194071e-06
5.78657827937768e-06
5.54638184408166e-06
5.12738815591764e-06
4.45506272122674e-06
3.46461849344618e-06
2.12672676366339e-06
6.49998270637069e-09
2.49157809977963e-11
2.50015956866183e-11
6.56143631879633e-09
2.15315666374944e-06
3.50975051725542e-06
4.51486280773206e-06
5.19798333199012e-06
5.62429094914253e-06
5.86900176771731e-06
5.99855381077527e-06
6.06203247870414e-06
6.09094029023928e-06
6.10323069137178e-06
6.1081313975438e-06
6.10997208296369e-06
6.11062582960846e-06
6.11084602848445e-06
6.11091640965072e-06
6.11093761883802e-06
6.11094344852032e-06
6.11094468438428e-06
6.11094464716243e-06
6.11094431722556e-06
6.11094394369331e-06
6.11094359228475e-06
6.11094327927028e-06
6.11094300817121e-06
6.11094277876179e-06
6.11094258656753e-06
6.11094241232631e-06
6.11094218175653e-06
6.11094162107041e-06
6.11093975749664e-06
6.11093327527192e-06
6.11091134749369e-06
6.11084020229533e-06
6.11061958094646e-06
6.10996746326608e-06
6.10813605179266e-06
6.10326746186441e-06
6.0910671546232e-06
6.06237612961592e-06
5.99935103716041e-06
5.87062171715544e-06
5.62718522508697e-06
5.20250795515485e-06
4.52097633653899e-06
3.5167243288825e-06
2.15955874287651e-06
6.60084438945526e-09
2.52846255019227e-11
2.52590802277752e-11
6.63201017203648e-09
2.17622270759672e-06
3.54641508980556e-06
4.56136606850621e-06
5.25115794380339e-06
5.68168876791953e-06
5.92889048474686e-06
6.05981108069816e-06
6.12399113610862e-06
6.15323514309711e-06
6.16567679265764e-06
6.1706416267984e-06
6.17250806015445e-06
6.17317165729002e-06
6.17339548226297e-06
6.17346717280842e-06
6.17348886588532e-06
6.17349489717662e-06
6.1734962361302e-06
6.1734962611383e-06
6.17349597362113e-06
6.17349563180032e-06
6.17349530394415e-06
6.1734950071696e-06
6.17349474523434e-06
6.17349451784854e-06
6.17349432031764e-06
6.17349413304771e-06
6.17349388096725e-06
6.1734932877249e-06
6.17349137285504e-06
6.1734847948319e-06
6.17346264055706e-06
6.17339085987602e-06
6.17316833879772e-06
6.17251057474459e-06
6.17066300818617e-06
6.16575058150125e-06
6.15343839528817e-06
6.12448039422834e-06
6.06086251653377e-06
5.93091343536485e-06
5.68515772848215e-06
5.2564111780933e-06
4.56828629678254e-06
3.55413997259561e-06
2.18314722651207e-06
6.67301336089907e-09
2.55468148325057e-11
2.5436567755656e-11
6.68098332044789e-09
2.19232744061989e-06
3.57205819279468e-06
4.59393623615932e-06
5.28844482700099e-06
5.72197527584659e-06
5.97095513875135e-06
6.10285804064087e-06
6.16754449980196e-06
6.19703276798436e-06
6.20958503890606e-06
6.21459710590149e-06
6.21648264562152e-06
6.21715361182319e-06
6.21738017475357e-06
6.21745286560363e-06
6.21747493466996e-06
6.21748112611337e-06
6.21748254960148e-06
6.21748262737796e-06
6.21748237643271e-06
6.21748206240126e-06
6.21748175567588e-06
6.21748147408063e-06
6.21748122158397e-06
6.21748099787045e-06
6.21748079808111e-06
6.21748060234986e-06
6.21748033500023e-06
6.21747971790484e-06
6.21747776521999e-06
6.21747111760859e-06
6.21744880241745e-06
6.21737657668016e-06
6.21715273210682e-06
6.21649103655194e-06
6.21463220842983e-06
6.20968917607095e-06
6.19729876468039e-06
6.16815386977785e-06
6.10412063506414e-06
5.97331630970063e-06
5.72593368453413e-06
5.29433143139761e-06
4.60157753897532e-06
3.58047978714395e-06
2.19976060972604e-06
6.72361969672977e-09
2.57294609064006e-11
2.55563509491295e-11
6.71425993845356e-09
2.20334321107788e-06
3.58963462377142e-06
4.61629773447312e-06
5.31407952853544e-06
5.74970188950978e-06
5.99992841991351e-06
6.13252395861088e-06
6.19756966834639e-06
6.22723234004131e-06
6.23986413369042e-06
6.24491039871665e-06
6.24680987705345e-06
6.24748626336436e-06
6.24771485900893e-06
6.24778830124482e-06
6.24781065746518e-06
6.24781697376128e-06
6.24781846530893e-06
6.24781858716797e-06
6.2478183672503e-06
6.24781807722363e-06
6.2478177892287e-06
6.24781752167905e-06
6.24781727872589e-06
6.24781706004898e-06
6.24781686067075e-06
6.24781666051396e-06
6.24781638345743e-06
6.24781575015445e-06
6.24781377109508e-06
6.24780707489395e-06
6.24778464859868e-06
6.24771211842118e-06
6.24748737158658e-06
6.24682299548174e-06
6.24495647795978e-06
6.23999251222306e-06
6.22754851278191e-06
6.19827541835368e-06
6.13395697431306e-06
6.00256491501747e-06
5.75406354029454e-06
5.32049644910712e-06
4.62455560619761e-06
3.59866782211756e-06
2.21123733024655e-06
6.7584200336636e-09
2.58542393382719e-11
2.56355423207126e-11
6.7364118542326e-09
2.21072801441068e-06
3.6014457040144e-06
4.63135267569725e-06
5.33136451702611e-06
5.76841962570949e-06
6.01950478223458e-06
6.152580208102e-06
6.21787639302489e-06
6.24766147089823e-06
6.26034946778545e-06
6.26542007933128e-06
6.26732955752065e-06
6.2680098647353e-06
6.26823994483636e-06
6.26831394234461e-06
6.26833651427441e-06
6.26834292631722e-06
6.26834447205113e-06
6.26834463041523e-06
6.26834443651314e-06
6.26834416707094e-06
6.26834389560905e-06
6.26834364102059e-06
6.26834340760459e-06
6.26834319505441e-06
6.26834299831155e-06
6.26834279714212e-06
6.26834251510343e-06
6.26834187203237e-06
6.26833987598314e-06
6.2683331476073e-06
6.26831064729462e-06
6.26823791442219e-06
6.26801256675621e-06
6.26734640276656e-06
6.26547474552825e-06
6.26049675801714e-06
6.2480167972941e-06
6.21865754003444e-06
6.15414716917076e-06
6.02235920749834e-06
5.77310359702546e-06
5.33821081344028e-06
4.64011786867891e-06
3.61099191980416e-06
2.21901740872764e-06
6.78190199681152e-09
2.59378902252601e-11
2.56868370107495e-11
6.75086001690462e-09
2.21558010976125e-06
3.6092268366456e-06
4.6412918026344e-06
5.34279523186842e-06
5.78081404269598e-06
6.03248014870401e-06
6.16588229252966e-06
6.2313501259569e-06
6.26121966464618e-06
6.2739467204135e-06
6.27903437850018e-06
6.28095091337854e-06
6.28163401104526e-06
6.28186515794664e-06
6.28193955945522e-06
6.28196229104703e-06
6.28196877557763e-06
6.28197036425944e-06
6.28197055277053e-06
6.28197038042261e-06
6.28197012864749e-06
6.28196987184784e-06
6.28196962928748e-06
6.28196940538614e-06
6.28196919985318e-06
6.28196900758198e-06
6.28196880822747e-06
6.28196852512389e-06
6.28196787757193e-06
6.28196587205748e-06
6.28195912412409e-06
6.28193657699544e-06
6.28186371383793e-06
6.28163797712418e-06
6.28097064993448e-06
6.27909563628238e-06
6.27410846397537e-06
6.26160488816014e-06
6.23218893425385e-06
6.16755206366178e-06
6.03550280566873e-06
5.78574881285035e-06
5.34997907545761e-06
4.65046085036049e-06
3.61918738927799e-06
2.22419386912469e-06
6.79745386750687e-09
2.59929402531193e-11
2.57193549585315e-11
6.7600828186005e-09
2.21870102626168e-06
3.6142467968516e-06
4.64771918405868e-06
5.35020118900525e-06
5.78885610170627e-06
6.04090809961354e-06
6.17452870183549e-06
6.24011210263284e-06
6.27003891682114e-06
6.2827926575762e-06
6.28789205219736e-06
6.28981348512212e-06
6.2904985366857e-06
6.2907304382041e-06
6.29080512928606e-06
6.29082797751246e-06
6.29083451630359e-06
6.2908361393312e-06
6.29083635302959e-06
6.29083619791268e-06
6.29083596136817e-06
6.29083571768055e-06
6.29083548637071e-06
6.2908352719464e-06
6.29083507413702e-06
6.29083488781111e-06
6.29083469254736e-06
6.2908344115319e-06
6.29083376372774e-06
6.29083175466065e-06
6.29082499673977e-06
6.29080242255711e-06
6.29072948011903e-06
6.29050350130499e-06
6.28983544180776e-06
6.28795829935835e-06
6.28296527027412e-06
6.27044657399136e-06
6.24099420023728e-06
6.17627585997014e-06
6.04405796078729e-06
5.79398172515336e-06
5.35764402648058e-06
4.65720118273651e-06
3.62453201330948e-06
2.22757199646509e-06
6.80755835834645e-09
2.60284907029195e-11
2.57394407869463e-11
6.76581867331905e-09
2.2206573581622e-06
3.61740455370218e-06
4.65177348397798e-06
5.35488309683901e-06
5.79394878664313e-06
6.04625175266124e-06
6.1800154771127e-06
6.24567517021086e-06
6.27564009176414e-06
6.28841173003655e-06
6.29351906163566e-06
6.29544383557739e-06
6.29613023238866e-06
6.2963626591727e-06
6.29643755478624e-06
6.29646048723541e-06
6.29646706631116e-06
6.2964687160803e-06
6.29646894990629e-06
6.29646881044168e-06
6.296468587237e-06
6.29646835544103e-06
6.29646813478461e-06
6.29646792983164e-06
6.29646774033268e-06
6.29646756115219e-06
6.29646737181898e-06
6.29646709542415e-06
6.29646645073645e-06
6.29646444275002e-06
6.29645768211768e-06
6.29643509532128e-06
6.29636210967772e-06
6.296135990766e-06
6.29546749522706e-06
6.2935890638187e-06
6.28859244806663e-06
6.27606441468639e-06
6.24658940773528e-06
6.1818201850167e-06
6.04949653736514e-06
5.79921756321839e-06
5.36252149790739e-06
4.66149367406287e-06
3.62793906370373e-06
2.22972768834494e-06
6.81398161373154e-09
2.6050965353519e-11
2.57513518644691e-11
6.76924330133206e-09
2.22183536283774e-06
3.61931469286114e-06
4.65423492673967e-06
5.35773385426018e-06
5.79705658744773e-06
6.04951799620308e-06
6.18337290282219e-06
6.24908165814852e-06
6.27907131622387e-06
6.29185468266865e-06
6.29696726551826e-06
6.29889427184939e-06
6.29958157707114e-06
6.29981436299644e-06
6.29988940085364e-06
6.2999123934661e-06
6.29991900242852e-06
6.29992067276598e-06
6.29992092345881e-06
6.29992079771789e-06
6.29992058635601e-06
6.29992036549033e-06
6.29992015501706e-06
6.29991995953625e-06
6.29991977881842e-06
6.29991960773669e-06
6.29991942579167e-06
6.29991915601958e-06
6.2999185170995e-06
6.29991651380991e-06
6.29990975605595e-06
6.29988716745489e-06
6.2998141648622e-06
6.29958797850412e-06
6.2989192547929e-06
6.29704011747492e-06
6.29204147877863e-06
6.2795080683785e-06
6.25001982482477e-06
6.18522049195359e-06
6.05283368851838e-06
5.80243273857053e-06
5.36551974609715e-06
4.66413593903038e-06
3.63003984349083e-06
2.23105937469464e-06
6.81793986837273e-09
2.60647578828821e-11
2.57578040414207e-11
6.77111219517748e-09
2.22248524648676e-06
3.62037674478988e-06
4.65561219213206e-06
5.35933695267501e-06
5.79881091540756e-06
6.05136687045503e-06
6.18527696651889e-06
6.2510158495224e-06
6.28102090701273e-06
6.29381167437069e-06
6.2989276157e-06
6.30085606896974e-06
6.30154397121614e-06
6.30177699699253e-06
6.30185213194061e-06
6.30187516706408e-06
6.30188179829586e-06
6.30188348478827e-06
6.30188374959929e-06
6.3018836359185e-06
6.30188343523733e-06
6.30188322456865e-06
6.30188302393181e-06
6.30188283795002e-06
6.30188266641328e-06
6.30188250421058e-06
6.30188233082129e-06
6.30188206925953e-06
6.30188143820407e-06
6.30187944247651e-06
6.30187269204751e-06
6.30185011021828e-06
6.30177711121241e-06
6.30155091301357e-06
6.30088211678774e-06
6.29900270177624e-06
6.29400316994517e-06
6.28146720517137e-06
6.25197234865152e-06
6.18715741660749e-06
6.05473699749274e-06
5.80426976688346e-06
5.36723695991943e-06
4.66565389068808e-06
3.6312511866667e-06
2.23183053389641e-06
6.82023489905256e-09
2.60727496292449e-11
2.57603691959365e-11
6.77186555642647e-09
2.2227540426808e-06
3.62082670865367e-06
4.65620696738972e-06
5.36003966998687e-06
5.79958864949492e-06
6.05219319001146e-06
6.18613262192078e-06
6.25188806343617e-06
6.28190183337298e-06
6.29469690754368e-06
6.29981485734008e-06
6.30174419991658e-06
6.30243248043604e-06
6.30266566439465e-06
6.30274086742533e-06
6.3027639353077e-06
6.30277058586023e-06
6.30277228749319e-06
6.30277256607425e-06
6.30277246448755e-06
6.30277227456294e-06
6.30277207414538e-06
6.30277188334768e-06
6.30277170682498e-06
6.30277154438949e-06
6.30277139092641e-06
6.30277122590358e-06
6.30277097232528e-06
6.30277034893305e-06
6.30276836081911e-06
6.30276161875745e-06
6.30273904804415e-06
6.30266606716025e-06
6.3024399015366e-06
6.30177116068337e-06
6.29989181746022e-06
6.29489229818714e-06
6.28235599667901e-06
6.25285963339212e-06
6.18804010418689e-06
6.05560815378149e-06
5.8051158018963e-06
5.36803427923931e-06
4.66636582252015e-06
3.63182611027765e-06
2.23220163347949e-06
6.82135519593049e-09
2.60766928523295e-11
2.57597180631272e-11
6.77169374178949e-09
2.22270682252233e-06
3.62077081378751e-06
4.65615664684645e-06
5.36000160809077e-06
5.7995642045769e-06
6.05218060791366e-06
6.18612890213563e-06
6.25189022225738e-06
6.28190751416234e-06
6.29470452638468e-06
6.29982346535222e-06
6.30175328360535e-06
6.30244178472198e-06
6.30267507136943e-06
6.30275032552687e-06
6.30277342279889e-06
6.30278009372261e-06
6.30278181249516e-06
6.30278210676389e-06
6.30278201884731e-06
6.30278184083662e-06
6.3027816514205e-06
6.30278147074874e-06
6.30278130353212e-06
6.30278114960126e-06
6.30278100382026e-06
6.30278084563488e-06
6.3027805980504e-06
6.30277997991756e-06
6.30277799683312e-06
6.30277126118256e-06
6.30274870275257e-06
6.30267575155134e-06
6.30244966055681e-06
6.30178110045186e-06
6.29990216919935e-06
6.29490352559035e-06
6.28236894817585e-06
6.25287570585132e-06
6.18806132231694e-06
6.05563700062099e-06
5.80515461361838e-06
5.36808409560378e-06
4.66642474263502e-06
3.63188732166521e-06
2.23225130787706e-06
6.82154289365227e-09
2.60774654524482e-11
2.57557557003808e-11
6.77057360372755e-09
2.22233770377504e-06
3.62020221832285e-06
4.65545522902689e-06
5.35921840477239e-06
5.79873503622366e-06
6.05132819269514e-06
6.18526610394989e-06
6.25102344305811e-06
6.28103957192308e-06
6.2938364255055e-06
6.29895546974811e-06
6.30088541154817e-06
6.30157400066412e-06
6.30180734315774e-06
6.30188263336684e-06
6.3019057560485e-06
6.30191244703064e-06
6.30191418366825e-06
6.30191449446434e-06
6.30191442068375e-06
6.30191425481359e-06
6.30191407660403e-06
6.30191390604944e-06
6.30191374791972e-06
6.30191360206094e-06
6.3019134633172e-06
6.30191331111532e-06
6.30191306847308e-06
6.30191245444345e-06
6.30191047545356e-06
6.30190374656003e-06
6.3018812052161e-06
6.30180830196382e-06
6.30158234162776e-06
6.30091411834988e-06
6.2990360062324e-06
6.29403924120136e-06
6.28150872168455e-06
6.25202371873923e-06
6.18722502407563e-06
6.05482865588557e-06
5.80439279497106e-06
5.36739454805405e-06
4.66583994111553e-06
3.63144417667186e-06
2.23198679196632e-06
6.82082456728133e-09
2.60751735530931e-11
2.57476401412485e-11
6.76827132747069e-09
2.22156990242924e-06
3.61900080151615e-06
4.65395292329091e-06
5.35752135824129e-06
5.79692137815327e-06
6.0494502917531e-06
6.18335575800156e-06
6.2490981045671e-06
6.2791079288285e-06
6.29190238043535e-06
6.29702060917052e-06
6.29895031695693e-06
6.29963886192248e-06
6.29987221345341e-06
6.29994752366532e-06
6.2999706662967e-06
6.29997737541822e-06
6.29997912914581e-06
6.29997945595893e-06
6.29997939582751e-06
6.29997924170805e-06
6.29997907440805e-06
6.29997891370899e-06
6.29997876442945e-06
6.29997862644054e-06
6.29997849457359e-06
6.29997834825018e-06
6.29997811053788e-06
6.29997750083377e-06
6.29997552686622e-06
6.29996880782986e-06
6.29994629316775e-06
6.29987346610148e-06
6.29964771579292e-06
6.29898004232084e-06
6.29710329379342e-06
6.29210972944264e-06
6.27958630709829e-06
6.25011613328932e-06
6.18534655303383e-06
6.05300375054053e-06
5.8026600423932e-06
5.3658098489185e-06
4.66447734224546e-06
3.63039298505142e-06
2.23134448146363e-06
6.81901695397958e-09
2.60692057799227e-11
2.5733618055465e-11
6.76430179732785e-09
2.2202447387488e-06