/*--------------------------------*- C++ -*----------------------------------*\
  =========                 |
  \\      /  F ield         | OpenFOAM: The Open Source CFD Toolbox
   \\    /   O peration     | Website:  https://openfoam.org
    \\  /    A nd           | Version:  10
     \\/     M anipulation  |
\*---------------------------------------------------------------------------*/
FoamFile
{
    format      ascii;
    class       volScalarField;
    location    "4.6";
    object      omega;
}
// * * * * * * * * * * * * * * * * * * * * * * * * * * * * * * * * * * * * * //

dimensions      [0 0 -1 0 0 0 0];

internalField   nonuniform List<scalar> 
2500
(
128150.050685836
128163.562479711
128158.479668112
128155.535542969
128154.07150035
128153.380582567
128153.06681712
128152.930060174
128152.873149561
128152.851004124
128152.84212955
128152.838728624
128152.837411877
128152.836587255
128152.836001029
128152.835415814
128152.835128366
128152.834774013
128152.834373829
128152.834100562
128152.833862145
128152.833652022
128152.833476067
128152.833373647
128152.833261313
128152.833157517
128152.833121012
128152.833097238
128152.833098932
128152.833137833
128152.833206396
128152.833339352
128152.833502771
128152.833709301
128152.833943456
128152.834233926
128152.834644459
128152.835245394
128152.836845157
128152.840478942
128152.849801057
128152.873639853
128152.93258731
128153.071735434
128153.387295436
128154.073463922
128155.527816818
128158.478540224
128163.620726994
128150.005534139
31889.9064238131
14170.6920567602
14168.3085163147
14166.905390908
14166.1671368524
14165.7967130504
14165.6181166134
14165.5361443023
14165.5006115229
14165.4861220514
14165.480527472
14165.4784849357
14165.4777763458
14165.4775262995
14165.4774298121
14165.4773805792
14165.4773572377
14165.4773356974
14165.4773127452
14165.4772947743
14165.4772777706
14165.4772607292
14165.4772457486
14165.4772367632
14165.4772290851
14165.4772213279
14165.4772179285
14165.4772152591
14165.4772120975
14165.4772134582
14165.4772163857
14165.4772207828
14165.4772354362
14165.4772559831
14165.4772765934
14165.4773152666
14165.4774180874
14165.4777056189
14165.4785368127
14165.4808276677
14165.4869063598
14165.5022516881
14165.5389454498
14165.6219914864
14165.8005158532
14166.1681966587
14166.9022297848
14168.3109590595
14170.7296494623
31889.8957107238
31764.1577880401
3528.40989484849
50.7980914905256
50.7917336093581
50.7884049378055
50.7867375246764
50.7859329702149
50.7855625809448
50.7854012929326
50.7853351277807
50.7853095074398
50.785300145162
50.7852969168287
50.7852958377588
50.7852954758391
50.7852953412351
50.7852952913154
50.7852952559999
50.7852952193661
50.7852951881058
50.7852951543267
50.7852951150421
50.7852950777263
50.7852950554444
50.7852950399331
50.785295023002
50.7852950157273
50.7852950088605
50.7852949957104
50.7852949944363
50.785294994051
50.7852949908966
50.7852950321479
50.7852950951287
50.7852951487141
50.7852952795104
50.7852956997273
50.7852969664995
50.7853006757885
50.7853110203909
50.7853385255338
50.785407899427
50.7855734799999
50.785947607407
50.7867512729399
50.7884084855512
50.7917266631404
50.7981313422934
3528.42739599741
31764.3296272844
31665.257321688
3517.42345647379
50.6411861875101
50.6357837655701
50.6330591457061
50.6317414825891
50.6311238551679
50.6308456119006
50.6307263057901
50.6306778822995
50.6306592806636
50.6306525286677
50.6306502221344
50.6306494685319
50.6306492301186
50.630649156708
50.6306491382352
50.6306491287124
50.6306491181036
50.6306491074694
50.6306490926728
50.6306490710961
50.6306490479221
50.630649033775
50.6306490262832
50.6306490177084
50.6306490142661
50.6306490106267
50.6306490016901
50.630648999283
50.6306489957885
50.6306489845343
50.6306490089108
50.6306490490239
50.6306490752514
50.6306491518737
50.6306494246183
50.630650284957
50.6306528547947
50.630660137381
50.6306797708454
50.6307300022302
50.6308518269491
50.6311324467366
50.6317500685331
50.6330634756762
50.6357905683035
50.6412581925113
3517.44522048022
31665.6114342145
31597.7704212682
3510.120072215
50.5387787818756
50.5350547270855
50.5332446056558
50.5323988695493
50.5320133049315
50.5318429514367
50.5317707950655
50.5317417078834
50.5317305709117
50.5317265360843
50.5317251636875
50.5317247206434
50.5317245869405
50.531724555409
50.5317245542058
50.5317245545189
50.5317245540236
50.5317245532446
50.5317245493756
50.5317245397807
50.5317245269061
50.5317245188213
50.5317245163032
50.531724513428
50.5317245123489
50.5317245108313
50.5317245062473
50.5317245042813
50.5317245003506
50.5317244887694
50.5317245003072
50.5317245186133
50.5317245262637
50.5317245664379
50.5317247170622
50.5317252032083
50.5317266812207
50.5317309176629
50.5317424469161
50.5317722449813
50.5318454095347
50.5320167108144
50.532402228957
50.5332468324598
50.5350647428006
50.5388510312779
3510.14036158136
31598.1856229498
31556.9128202643
3505.82582851676
50.4796255789346
50.4774190639611
50.4763822567029
50.4759129580149
50.475704397676
50.4756138127299
50.4755758078754
50.47556054687
50.4755547043174
50.4755525850758
50.4755518651965
50.4755516346348
50.4755515703317
50.4755515604647
50.4755515632847
50.475551566658
50.4755515688767
50.4755515693023
50.475551569308
50.4755515669282
50.4755515603496
50.4755515563821
50.4755515565584
50.475551556416
50.475551556149
50.4755515555923
50.4755515538172
50.4755515525104
50.475551549366
50.4755515409201
50.4755515453061
50.4755515512345
50.4755515512884
50.4755515707061
50.4755516445545
50.4755518871549
50.4755526373478
50.4755548052101
50.4755607388881
50.4755761739456
50.4756144085062
50.4757051167015
50.4759133183734
50.476382151879
50.4774256291824
50.4796781997603
3505.84110805274
31557.2755912265
31534.5904792579
3503.55115028733
50.4488161529469
50.4476549474187
50.4471256528276
50.4468928388176
50.4467917566159
50.4467485158196
50.4467305102641
50.446723292787
50.4467205240709
50.4467195166154
50.4467191742511
50.4467190657497
50.4467190385562
50.4467190366466
50.4467190391989
50.4467190423575
50.4467190446394
50.4467190451567
50.446719045919
50.4467190459205
50.4467190429583
50.4467190414239
50.4467190423287
50.4467190428646
50.4467190430073
50.4467190428627
50.4467190421361
50.4467190413778
50.4467190393641
50.4467190342909
50.4467190355393
50.4467190369365
50.4467190355601
50.4467190440563
50.4467190766876
50.4467191866371
50.4467195331277
50.4467205401993
50.4467233040832
50.4467305169047
50.4467484869581
50.4467915646652
50.4468921571025
50.4471244061668
50.4476574096163
50.448846839166
3503.56089692761
31534.8505499712
31523.4354544009
3502.44996671846
50.4341364383577
50.433581721687
50.4333356584961
50.4332301723706
50.4331853380912
50.433166420804
50.4331585916053
50.4331554542654
50.4331542467047
50.4331538054212
50.4331536552846
50.4331536084528
50.4331535978852
50.433153598032
50.4331535998496
50.433153601919
50.4331536034887
50.4331536041844
50.4331536046286
50.4331536047858
50.433153603876
50.4331536035044
50.433153604256
50.4331536047272
50.433153604934
50.4331536049041
50.433153604599
50.4331536042233
50.433153603137
50.4331536005014
50.4331536006565
50.4331536007227
50.4331535996328
50.4331536029705
50.4331536161951
50.433153662466
50.433153810901
50.4331542439135
50.433155432471
50.4331585356119
50.4331662903498
50.43318502717
50.433229438224
50.4333343205166
50.4335818372915
50.4341514518808
3502.45540400729
31523.5961631266
31518.2806802741
3501.95712991713
50.427664386766
50.4274200326371
50.4273142582097
50.4272699458368
50.4272514761945
50.4272437809648
50.4272406125511
50.427239342101
50.4272388510971
50.4272386708042
50.4272386093745
50.4272385906239
50.4272385868461
50.4272385872548
50.4272385883169
50.4272385894594
50.4272385903571
50.4272385908569
50.427238591096
50.4272385911838
50.4272385910708
50.4272385911884
50.427238591579
50.4272385918596
50.4272385919993
50.4272385920265
50.4272385919258
50.4272385917435
50.4272385912374
50.4272385901012
50.4272385899938
50.4272385898814
50.4272385893194
50.4272385903827
50.4272385953612
50.4272386136746
50.4272386734102
50.4272388480338
50.4272393264105
50.4272405729917
50.4272436903102
50.4272512649318
50.427269450308
50.4273132816523
50.4274193867304
50.4276706869848
3501.95984339614
31518.368898229
31516.0581209622
3501.75130031816
50.4249997736316
50.4248993243861
50.4248567945991
50.4248393418667
50.4248321967714
50.4248292546345
50.4248280487405
50.4248275646524
50.4248273767398
50.424827307409
50.4248272837601
50.4248272767182
50.4248272754828
50.4248272757922
50.4248272763457
50.4248272769191
50.4248272773845
50.4248272776834
50.4248272778536
50.4248272779451
50.424827278001
50.424827278141
50.4248272783422
50.4248272784954
50.4248272785829
50.4248272786251
50.4248272786093
50.424827278541
50.4248272783392
50.4248272778945
50.4248272777986
50.4248272777149
50.4248272774898
50.4248272777668
50.4248272795077
50.4248272864413
50.4248273092463
50.4248273759402
50.4248275579702
50.4248280304781
50.4248292104667
50.4248320880686
50.4248390720133
50.4248562155093
50.4248986909337
50.4250020479794
3501.7525320786
31516.1020267548
31515.1573736044
3501.67047234
50.4239677931814
50.4239288948642
50.4239127554026
50.4239062541775
50.4239036360623
50.4239025698508
50.4239021346741
50.4239019597456
50.4239018915524
50.4239018662872
50.4239018576743
50.4239018551955
50.4239018548393
50.4239018550167
50.4239018552911
50.4239018555692
50.4239018558037
50.4239018559739
50.4239018560945
50.4239018561782
50.4239018562479
50.4239018563461
50.4239018564575
50.4239018565477
50.4239018566097
50.4239018566538
50.4239018566731
50.4239018566658
50.4239018566067
50.423901856458
50.4239018564185
50.4239018563849
50.4239018563233
50.423901856391
50.4239018569727
50.4239018594899
50.4239018678132
50.4239018921178
50.4239019581114
50.4239021284808
50.4239025526275
50.4239035888429
50.4239061263952
50.4239124574918
50.4239284805736
50.4239684826167
3501.67098741641
31515.1774822713
31514.8122273565
3501.64045284732
50.4235897490749
50.4235754521794
50.4235696298044
50.4235673233456
50.423566408415
50.4235660396847
50.4235658897971
50.4235658294757
50.4235658058753
50.4235657971094
50.4235657941365
50.423565793322
50.4235657932481
50.4235657933541
50.4235657934951
50.4235657936363
50.4235657937614
50.4235657938632
50.4235657939474
50.4235657940161
50.4235657940782
50.423565794149
50.4235657942213
50.4235657942846
50.4235657943362
50.4235657943804
50.4235657944144
50.4235657944363
50.4235657944385
50.4235657944086
50.4235657944093
50.4235657944107
50.4235657944056
50.423565794434
50.423565794637
50.423565795524
50.4235657984505
50.4235658069543
50.4235658298908
50.423565888704
50.4235660344599
50.4235663906064
50.4235672690418
50.4235694923735
50.4235752299591
50.4235899082361
3501.6406532202
31514.8207988126
31514.6866978556
3501.62987214055
50.4234583880461
50.4234533700091
50.4234513614727
50.4234505777305
50.4234502710886
50.423450148726
50.4234500991933
50.4234500792493
50.4234500714321
50.4234500685342
50.4234500675695
50.4234500673323
50.4234500673441
50.423450067415
50.423450067498
50.4234500675811
50.4234500676587
50.4234500677285
50.4234500677923
50.4234500678503
50.4234500679055
50.4234500679628
50.4234500680194
50.4234500680721
50.4234500681199
50.4234500681644
50.4234500682044
50.4234500682389
50.4234500682655
50.4234500682805
50.4234500683023
50.4234500683228
50.4234500683402
50.4234500683656
50.4234500684476
50.4234500687609
50.4234500697628
50.4234500726374
50.42345008032
50.4234500998609
50.4234501480093
50.4234502655025
50.4234505568869
50.4234513036632
50.4234532655587
50.4234584032125
3501.62994523631
31514.6901288585
31514.6433678026
3501.62634027022
50.423415248478
50.423413558121
50.4234128923463
50.4234126360836
50.4234125370748
50.4234124979424
50.4234124821777
50.4234124758398
50.4234124733636
50.4234124724602
50.4234124721785
50.4234124721332
50.423412472169
50.4234124722242
50.4234124722837
50.4234124723436
50.4234124724021
50.4234124724583
50.4234124725125
50.4234124725649
50.4234124726161
50.4234124726675
50.423412472718
50.4234124727668
50.4234124728132
50.4234124728579
50.4234124729003
50.4234124729398
50.4234124729756
50.4234124730066
50.4234124730379
50.4234124730673
50.4234124730942
50.4234124731219
50.4234124731663
50.4234124732849
50.4234124736267
50.4234124745746
50.4234124770684
50.4234124833458
50.4234124987034
50.4234125360791
50.4234126291279
50.4234128701767
50.4234135139315
50.4234152378678
3501.62636545526
31514.644666999
31514.6293365117
3501.62524485418
50.4234021842122
50.4234016354828
50.4234014225857
50.4234013416585
50.4234013107559
50.4234012986619
50.4234012938243
50.4234012918945
50.4234012911553
50.4234012909028
50.4234012908441
50.4234012908602
50.4234012909022
50.4234012909505
50.4234012910011
50.4234012910522
50.4234012911033
50.423401291154
50.4234012912042
50.4234012912538
50.4234012913031
50.423401291352
50.4234012914004
50.4234012914476
50.4234012914936
50.4234012915383
50.4234012915815
50.4234012916228
50.4234012916619
50.4234012916984
50.4234012917335
50.4234012917665
50.4234012917973
50.4234012918267
50.4234012918598
50.4234012919146
50.4234012920379
50.4234012923496
50.4234012931412
50.4234012951006
50.4234012998489
50.4234013113561
50.4234013400695
50.4234014151354
50.423401618666
50.4234021755119
3501.62525312055
31514.6298049074
31514.6252980296
3501.62495605606
50.4233989382827
50.4233987660431
50.4233987001567
50.4233986754062
50.4233986660656
50.4233986624553
50.423398661033
50.423398660482
50.4233986602876
50.42339866024
50.4233986602514
50.423398660286
50.4233986603292
50.4233986603751
50.4233986604223
50.4233986604702
50.4233986605184
50.4233986605669
50.4233986606155
50.4233986606639
50.4233986607121
50.4233986607601
50.4233986608075
50.4233986608542
50.4233986608999
50.4233986609445
50.4233986609879
50.4233986610298
50.42339866107
50.4233986611082
50.4233986611447
50.4233986611792
50.4233986612115
50.4233986612418
50.4233986612715
50.423398661306
50.4233986613594
50.4233986614679
50.4233986617193
50.4233986623189
50.4233986637481
50.4233986671877
50.4233986757756
50.4233986983998
50.42339876061
50.4233989343464
3501.62495868402
31514.625459873
31514.6245341256
3501.62492406653
50.4233987738223
50.4233987214058
50.4233987016267
50.423398694288
50.4233986915594
50.4233986905289
50.4233986901409
50.4233986900074
50.4233986899784
50.4233986899929
50.4233986900254
50.4233986900654
50.4233986901086
50.4233986901534
50.4233986901993
50.4233986902458
50.4233986902929
50.4233986903405
50.4233986903883
50.4233986904361
50.4233986904838
50.4233986905313
50.4233986905783
50.4233986906246
50.4233986906702
50.4233986907147
50.423398690758
50.4233986908
50.4233986908405
50.4233986908793
50.4233986909162
50.4233986909513
50.4233986909841
50.4233986910148
50.4233986910436
50.4233986910718
50.4233986911035
50.4233986911493
50.4233986912346
50.423398691419
50.4233986918414
50.4233986928429
50.4233986953384
50.4233987019535
50.4233987203868
50.4233987728935
3501.62492491306
31514.6245882255
31514.6248048316
3501.62497098077
50.4233995422725
50.423399526778
50.4233995210142
50.4233995189113
50.4233995181517
50.4233995178832
50.4233995177991
50.4233995177882
50.4233995178076
50.4233995178401
50.4233995178784
50.4233995179198
50.4233995179628
50.4233995180069
50.4233995180521
50.423399518098
50.4233995181446
50.4233995181916
50.4233995182389
50.4233995182864
50.4233995183338
50.4233995183809
50.4233995184277
50.4233995184738
50.4233995185191
50.4233995185635
50.4233995186067
50.4233995186487
50.4233995186892
50.4233995187281
50.4233995187652
50.4233995188004
50.4233995188334
50.4233995188643
50.4233995188928
50.4233995189193
50.4233995189447
50.4233995189718
50.4233995190078
50.4233995190693
50.4233995191952
50.4233995194814
50.4233995201874
50.4233995220669
50.4233995273728
50.4233995427791
3501.62497129176
31514.6248226819
31514.6253916742
3501.62504136134
50.4234005839789
50.4234005795283
50.4234005779038
50.4234005773315
50.4234005771419
50.423400577092
50.4234005770944
50.423400577118
50.4234005771508
50.423400577188
50.4234005772278
50.4234005772691
50.4234005773118
50.4234005773555
50.4234005774002
50.4234005774457
50.4234005774919
50.4234005775386
50.4234005775855
50.4234005776327
50.4234005776798
50.4234005777267
50.4234005777731
50.4234005778191
50.4234005778642
50.4234005779084
50.4234005779516
50.4234005779935
50.4234005780339
50.4234005780728
50.4234005781099
50.4234005781452
50.4234005781783
50.4234005782093
50.4234005782378
50.4234005782639
50.4234005782876
50.4234005783096
50.4234005783315
50.423400578358
50.4234005783993
50.4234005784819
50.4234005786776
50.4234005791969
50.4234005806827
50.4234005850788
3501.62504151864
31514.6253977956
31514.626072188
3501.62511851518
50.4234017033247
50.4234017020873
50.4234017016524
50.4234017015151
50.4234017014857
50.4234017014963
50.4234017015221
50.4234017015547
50.4234017015907
50.4234017016288
50.4234017016685
50.4234017017095
50.4234017017518
50.4234017017951
50.4234017018394
50.4234017018845
50.4234017019303
50.4234017019766
50.4234017020233
50.4234017020702
50.423401702117
50.4234017021636
50.4234017022099
50.4234017022556
50.4234017023006
50.4234017023446
50.4234017023876
50.4234017024294
50.4234017024698
50.4234017025086
50.4234017025457
50.423401702581
50.4234017026143
50.4234017026453
50.423401702674
50.4234017027001
50.4234017027235
50.4234017027443
50.4234017027628
50.4234017027799
50.4234017027983
50.4234017028251
50.4234017028797
50.4234017030197
50.423401703425
50.4234017046461
3501.6251186303
31514.6260746495
31514.6267796784
3501.62519757084
50.4234028441182
50.4234028437912
50.4234028436889
50.4234028436714
50.4234028436851
50.4234028437111
50.4234028437425
50.4234028437768
50.4234028438131
50.423402843851
50.4234028438902
50.4234028439308
50.4234028439726
50.4234028440155
50.4234028440594
50.4234028441042
50.4234028441496
50.4234028441956
50.423402844242
50.4234028442885
50.4234028443351
50.4234028443814
50.4234028444275
50.423402844473
50.4234028445178
50.4234028445617
50.4234028446045
50.4234028446462
50.4234028446865
50.4234028447253
50.4234028447624
50.4234028447977
50.423402844831
50.4234028448621
50.423402844891
50.4234028449173
50.4234028449409
50.4234028449618
50.4234028449797
50.4234028449948
50.4234028450077
50.4234028450203
50.4234028450377
50.4234028450756
50.423402845184
50.4234028455143
3501.6251976746
31514.6267810312
31514.6274947358
3501.62527714702
50.4234039906842
50.423403990608
50.4234039905957
50.4234039906094
50.4234039906336
50.4234039906628
50.4234039906948
50.4234039907288
50.4234039907646
50.4234039908018
50.4234039908405
50.4234039908806
50.4234039909218
50.4234039909643
50.4234039910078
50.4234039910521
50.4234039910972
50.4234039911429
50.4234039911889
50.4234039912352
50.4234039912815
50.4234039913276
50.4234039913734
50.4234039914187
50.4234039914633
50.423403991507
50.4234039915497
50.4234039915913
50.4234039916315
50.4234039916702
50.4234039917073
50.4234039917427
50.423403991776
50.4234039918073
50.4234039918364
50.4234039918629
50.4234039918869
50.4234039919081
50.4234039919264
50.4234039919416
50.4234039919539
50.4234039919636
50.4234039919723
50.4234039919843
50.423403992014
50.4234039921014
3501.62527724771
31514.6274957637
31514.6282118642
3501.62535686232
50.4234051387666
50.4234051387571
50.4234051387676
50.4234051387884
50.4234051388142
50.4234051388432
50.4234051388745
50.4234051389077
50.4234051389426
50.4234051389791
50.4234051390172
50.4234051390567
50.4234051390975
50.4234051391394
50.4234051391825
50.4234051392264
50.4234051392712
50.4234051393165
50.4234051393622
50.4234051394081
50.4234051394542
50.4234051395
50.4234051395456
50.4234051395906
50.423405139635
50.4234051396786
50.4234051397211
50.4234051397626
50.4234051398027
50.4234051398414
50.4234051398785
50.4234051399139
50.4234051399473
50.4234051399788
50.423405140008
50.4234051400349
50.4234051400593
50.423405140081
50.4234051400998
50.4234051401157
50.4234051401286
50.4234051401385
50.4234051401461
50.4234051401526
50.4234051401628
50.4234051401864
3501.62535696191
31514.6282127952
31514.6289295465
3501.62543661397
50.4234062872383
50.4234062872454
50.4234062872607
50.4234062872821
50.4234062873072
50.4234062873351
50.4234062873653
50.4234062873975
50.4234062874315
50.4234062874674
50.4234062875047
50.4234062875436
50.4234062875838
50.4234062876253
50.423406287668
50.4234062877115
50.4234062877558
50.4234062878008
50.4234062878462
50.4234062878918
50.4234062879376
50.4234062879831
50.4234062880285
50.4234062880733
50.4234062881175
50.4234062881609
50.4234062882033
50.4234062882447
50.4234062882847
50.4234062883234
50.4234062883605
50.4234062883959
50.4234062884294
50.423406288461
50.4234062884905
50.4234062885177
50.4234062885425
50.4234062885647
50.4234062885842
50.4234062886009
50.4234062886147
50.4234062886257
50.423406288634
50.4234062886403
50.4234062886467
50.4234062886547
3501.625436713
31514.6289304482
31514.6296473738
3501.62551637493
50.423407435808
50.4234074358182
50.4234074358337
50.423407435854
50.4234074358778
50.4234074359045
50.4234074359335
50.4234074359647
50.4234074359978
50.4234074360328
50.4234074360695
50.4234074361078
50.4234074361475
50.4234074361884
50.4234074362306
50.4234074362737
50.4234074363177
50.4234074363623
50.4234074364073
50.4234074364527
50.4234074364981
50.4234074365434
50.4234074365885
50.4234074366331
50.4234074366771
50.4234074367203
50.4234074367626
50.4234074368038
50.4234074368438
50.4234074368825
50.4234074369195
50.423407436955
50.4234074369887
50.4234074370205
50.4234074370501
50.4234074370777
50.4234074371029
50.4234074371257
50.4234074371459
50.4234074371634
50.4234074371783
50.4234074371904
50.4234074371999
50.4234074372073
50.4234074372139
50.423407437219
3501.6255164735
31514.6296482658
31514.6303652382
3501.62559613823
50.4234085844017
50.4234085844116
50.4234085844261
50.423408584445
50.4234085844674
50.4234085844928
50.4234085845207
50.4234085845508
50.423408584583
50.4234085846172
50.4234085846532
50.4234085846908
50.42340858473
50.4234085847704
50.4234085848121
50.4234085848548
50.4234085848984
50.4234085849426
50.4234085849873
50.4234085850323
50.4234085850775
50.4234085851225
50.4234085851673
50.4234085852117
50.4234085852555
50.4234085852986
50.4234085853408
50.4234085853819
50.4234085854218
50.4234085854604
50.4234085854975
50.423408585533
50.4234085855668
50.4234085855987
50.4234085856287
50.4234085856565
50.4234085856822
50.4234085857056
50.4234085857265
50.4234085857449
50.4234085857608
50.4234085857741
50.4234085857849
50.4234085857936
50.4234085858013
50.4234085858067
3501.62559623636
31514.6303661223
31514.631083112
3501.6256759021
50.4234097330013
50.4234097330102
50.4234097330232
50.4234097330408
50.4234097330618
50.4234097330859
50.4234097331126
50.4234097331417
50.423409733173
50.4234097332064
50.4234097332416
50.4234097332786
50.4234097333172
50.4234097333571
50.4234097333983
50.4234097334406
50.4234097334838
50.4234097335276
50.423409733572
50.4234097336167
50.4234097336615
50.4234097337062
50.4234097337508
50.423409733795
50.4234097338386
50.4234097338815
50.4234097339235
50.4234097339645
50.4234097340043
50.4234097340429
50.42340973408
50.4234097341156
50.4234097341496
50.4234097341817
50.4234097342119
50.4234097342401
50.4234097342663
50.4234097342902
50.4234097343118
50.4234097343311
50.4234097343479
50.4234097343624
50.4234097343745
50.4234097343846
50.4234097343935
50.4234097344
3501.62567599975
31514.6310839928
31514.6318009882
3501.62575566612
50.4234108816024
50.4234108816099
50.4234108816217
50.4234108816378
50.4234108816575
50.4234108816802
50.4234108817058
50.4234108817339
50.4234108817643
50.4234108817969
50.4234108818314
50.4234108818677
50.4234108819056
50.4234108819451
50.4234108819858
50.4234108820276
50.4234108820703
50.4234108821138
50.4234108821578
50.4234108822022
50.4234108822467
50.4234108822912
50.4234108823356
50.4234108823795
50.4234108824229
50.4234108824656
50.4234108825075
50.4234108825484
50.4234108825882
50.4234108826267
50.4234108826639
50.4234108826995
50.4234108827336
50.4234108827659
50.4234108827964
50.423410882825
50.4234108828516
50.4234108828761
50.4234108828984
50.4234108829185
50.4234108829364
50.423410882952
50.4234108829654
50.4234108829768
50.423410882987
50.4234108829948
3501.62575576337
31514.6318018649
31514.632518865
3501.62583543017
50.4234120302039
50.4234120302101
50.4234120302205
50.4234120302352
50.4234120302536
50.4234120302751
50.4234120302995
50.4234120303266
50.4234120303561
50.4234120303878
50.4234120304216
50.4234120304573
50.4234120304947
50.4234120305335
50.4234120305738
50.4234120306151
50.4234120306575
50.4234120307005
50.4234120307442
50.4234120307882
50.4234120308325
50.4234120308767
50.4234120309208
50.4234120309645
50.4234120310077
50.4234120310503
50.423412031092
50.4234120311328
50.4234120311725
50.423412031211
50.4234120312482
50.423412031284
50.4234120313181
50.4234120313507
50.4234120313815
50.4234120314104
50.4234120314375
50.4234120314625
50.4234120314856
50.4234120315065
50.4234120315254
50.4234120315421
50.4234120315566
50.4234120315694
50.4234120315809
50.42341203159
3501.62583552699
31514.6325197388
31514.6332367421
3501.62591519425
50.4234131788057
50.4234131788105
50.4234131788196
50.4234131788329
50.42341317885
50.4234131788703
50.4234131788936
50.4234131789196
50.4234131789482
50.4234131789791
50.4234131790122
50.4234131790472
50.4234131790839
50.4234131791223
50.423413179162
50.4234131792029
50.4234131792449
50.4234131792876
50.4234131793309
50.4234131793746
50.4234131794185
50.4234131794625
50.4234131795063
50.4234131795498
50.4234131795928
50.4234131796352
50.4234131796768
50.4234131797175
50.4234131797572
50.4234131797957
50.4234131798329
50.4234131798687
50.423413179903
50.4234131799358
50.4234131799669
50.4234131799962
50.4234131800237
50.4234131800493
50.4234131800731
50.4234131800949
50.4234131801147
50.4234131801325
50.4234131801482
50.4234131801623
50.423413180175
50.4234131801855
3501.62591529067
31514.6332376119
31514.6339546194
3501.62599495835
50.4234143274076
50.4234143274111
50.4234143274189
50.4234143274308
50.4234143274466
50.4234143274657
50.4234143274879
50.423414327513
50.4234143275406
50.4234143275707
50.423414327603
50.4234143276374
50.4234143276735
50.4234143277114
50.4234143277506
50.4234143277911
50.4234143278326
50.4234143278749
50.4234143279178
50.4234143279612
50.4234143280049
50.4234143280486
50.4234143280922
50.4234143281354
50.4234143281783
50.4234143282205
50.423414328262
50.4234143283026
50.4234143283422
50.4234143283807
50.4234143284179
50.4234143284539
50.4234143284883
50.4234143285213
50.4234143285526
50.4234143285823
50.4234143286103
50.4234143286365
50.4234143286609
50.4234143286835
50.4234143287043
50.4234143287231
50.4234143287401
50.4234143287554
50.4234143287694
50.4234143287812
3501.62599505429
31514.6339554853
31514.634672497
3501.62607472248
50.4234154760099
50.4234154760119
50.4234154760183
50.4234154760289
50.4234154760435
50.4234154760614
50.4234154760825
50.4234154761066
50.4234154761333
50.4234154761626
50.4234154761942
50.4234154762279
50.4234154762634
50.4234154763007
50.4234154763395
50.4234154763795
50.4234154764206
50.4234154764625
50.4234154765051
50.4234154765482
50.4234154765915
50.423415476635
50.4234154766783
50.4234154767214
50.423415476764
50.4234154768061
50.4234154768475
50.423415476888
50.4234154769275
50.423415476966
50.4234154770033
50.4234154770393
50.4234154770739
50.4234154771071
50.4234154771387
50.4234154771688
50.4234154771972
50.423415477224
50.4234154772491
50.4234154772725
50.4234154772942
50.4234154773141
50.4234154773322
50.4234154773488
50.4234154773641
50.4234154773772
3501.62607481794
31514.6346733568
31514.6353903748
3501.62615448663
50.4234166246125
50.423416624613
50.423416624618
50.4234166246273
50.4234166246406
50.4234166246573
50.4234166246773
50.4234166247004
50.4234166247263
50.4234166247548
50.4234166247857
50.4234166248187
50.4234166248537
50.4234166248904
50.4234166249287
50.4234166249683
50.423416625009
50.4234166250505
50.4234166250927
50.4234166251355
50.4234166251786
50.4234166252217
50.4234166252648
50.4234166253077
50.4234166253501
50.4234166253921
50.4234166254333
50.4234166254738
50.4234166255133
50.4234166255517
50.4234166255891
50.4234166256252
50.4234166256599
50.4234166256933
50.4234166257252
50.4234166257556
50.4234166257845
50.4234166258119
50.4234166258377
50.4234166258618
50.4234166258844
50.4234166259054
50.4234166259246
50.4234166259425
50.4234166259591
50.4234166259737
3501.62615458171
31514.6353912319
31514.636108253
3501.62623425081
50.4234177732153
50.4234177732143
50.4234177732179
50.4234177732258
50.4234177732379
50.4234177732535
50.4234177732724
50.4234177732946
50.4234177733196
50.4234177733473
50.4234177733774
50.4234177734098
50.4234177734442
50.4234177734804
50.4234177735182
50.4234177735574
50.4234177735976
50.4234177736388
50.4234177736807
50.4234177737232
50.4234177737659
50.4234177738088
50.4234177738517
50.4234177738944
50.4234177739367
50.4234177739784
50.4234177740196
50.4234177740599
50.4234177740994
50.4234177741379
50.4234177741752
50.4234177742114
50.4234177742463
50.4234177742799
50.4234177743121
50.4234177743429
50.4234177743722
50.4234177744001
50.4234177744266
50.4234177744515
50.423417774475
50.423417774497
50.4234177745173
50.4234177745366
50.4234177745544
50.4234177745707
3501.62623434552
31514.6361091075
31514.6368261316
3501.62631401503
50.4234189218186
50.4234189218158
50.4234189218181
50.4234189218246
50.4234189218354
50.4234189218498
50.4234189218678
50.423418921889
50.4234189219131
50.4234189219401
50.4234189219695
50.4234189220013
50.4234189220351
50.4234189220708
50.4234189221082
50.4234189221468
50.4234189221867
50.4234189222275
50.4234189222691
50.4234189223113
50.4234189223538
50.4234189223964
50.4234189224391
50.4234189224815
50.4234189225236
50.4234189225653
50.4234189226063
50.4234189226466
50.423418922686
50.4234189227244
50.4234189227618
50.4234189227981
50.4234189228332
50.4234189228669