/*--------------------------------*- C++ -*----------------------------------*\
  =========                 |
  \\      /  F ield         | OpenFOAM: The Open Source CFD Toolbox
   \\    /   O peration     | Website:  https://openfoam.org
    \\  /    A nd           | Version:  10
     \\/     M anipulation  |
\*---------------------------------------------------------------------------*/
FoamFile
{
    format      ascii;
    class       volScalarField;
    location    "4.6";
    object      p;
}
// * * * * * * * * * * * * * * * * * * * * * * * * * * * * * * * * * * * * * //

dimensions      [1 -1 -2 0 0 0 0];

internalField   nonuniform List<scalar> 
2500
(
100084.983830028
100084.983831352
100084.983832331
100084.983833118
100084.983833556
100084.983833812
100084.983833938
100084.983833989
100084.983833997
100084.983833979
100084.983833946
100084.983833903
100084.983833854
100084.983833801
100084.983833744
100084.983833686
100084.983833626
100084.983833564
100084.983833501
100084.983833437
100084.983833373
100084.983833309
100084.983833244
100084.98383318
100084.983833116
100084.983833053
100084.983832991
100084.983832931
100084.983832872
100084.983832815
100084.98383276
100084.983832707
100084.983832657
100084.98383261
100084.983832565
100084.983832524
100084.983832485
100084.983832448
100084.983832413
100084.983832378
100084.98383234
100084.983832292
100084.983832226
100084.983832123
100084.983831952
100084.98383166
100084.983831192
100084.983830378
100084.983829368
100084.983828034
100084.98158333
100084.981584364
100084.981585114
100084.981585781
100084.981586158
100084.981586383
100084.981586494
100084.981586537
100084.981586541
100084.98158652
100084.981586486
100084.981586443
100084.981586394
100084.981586341
100084.981586285
100084.981586227
100084.981586166
100084.981586105
100084.981586042
100084.981585978
100084.981585914
100084.98158585
100084.981585785
100084.981585721
100084.981585658
100084.981585595
100084.981585533
100084.981585472
100084.981585413
100084.981585356
100084.981585301
100084.981585248
100084.981585198
100084.981585151
100084.981585106
100084.981585064
100084.981585025
100084.981584988
100084.981584953
100084.981584918
100084.981584881
100084.981584836
100084.981584773
100084.981584679
100084.981584524
100084.981584262
100084.981583853
100084.981583161
100084.981582382
100084.98158134
100084.979325826
100084.979326466
100084.979326805
100084.979327212
100084.979327441
100084.979327584
100084.979327651
100084.979327672
100084.979327665
100084.979327639
100084.979327603
100084.979327559
100084.979327509
100084.979327456
100084.9793274
100084.979327342
100084.979327282
100084.979327221
100084.979327158
100084.979327095
100084.97932703
100084.979326966
100084.979326902
100084.979326837
100084.979326774
100084.979326711
100084.979326649
100084.979326588
100084.979326529
100084.979326472
100084.979326417
100084.979326364
100084.979326314
100084.979326266
100084.979326221
100084.979326179
100084.97932614
100084.979326104
100084.979326069
100084.979326035
100084.979326
100084.97932596
100084.979325908
100084.979325836
100084.979325725
100084.979325544
100084.979325284
100084.97932485
100084.979324487
100084.97932383
100084.977060079
100084.977060283
100084.977060268
100084.977060397
100084.977060461
100084.97706051
100084.977060527
100084.977060522
100084.977060502
100084.977060471
100084.977060432
100084.977060387
100084.977060337
100084.977060283
100084.977060227
100084.977060169
100084.977060109
100084.977060048
100084.977059985
100084.977059922
100084.977059858
100084.977059793
100084.977059729
100084.977059665
100084.977059601
100084.977059538
100084.977059476
100084.977059416
100084.977059357
100084.977059299
100084.977059244
100084.977059191
100084.977059141
100084.977059093
100084.977059048
100084.977059006
100084.977058967
100084.97705893
100084.977058896
100084.977058863
100084.977058831
100084.977058797
100084.977058758
100084.977058712
100084.97705865
100084.977058564
100084.977058469
100084.977058314
100084.977058312
100084.977058088
100084.974788313
100084.974788203
100084.974787997
100084.974787935
100084.974787885
100084.974787862
100084.97478784
100084.974787814
100084.974787783
100084.974787746
100084.974787703
100084.974787656
100084.974787606
100084.974787552
100084.974787496
100084.974787438
100084.974787378
100084.974787316
100084.974787254
100084.97478719
100084.974787126
100084.974787062
100084.974786998
100084.974786934
100084.97478687
100084.974786807
100084.974786745
100084.974786684
100084.974786625
100084.974786567
100084.974786512
100084.974786459
100084.974786408
100084.97478636
100084.974786315
100084.974786273
100084.974786234
100084.974786198
100084.974786164
100084.974786133
100084.974786104
100084.974786076
100084.974786049
100084.974786024
100084.974786001
100084.974785987
100084.974786006
100084.974786045
100084.97478624
100084.974786334
100084.972512618
100084.972512354
100084.972512079
100084.97251191
100084.972511795
100084.972511726
100084.972511677
100084.972511634
100084.972511594
100084.972511552
100084.972511506
100084.972511458
100084.972511406
100084.972511352
100084.972511296
100084.972511237
100084.972511177
100084.972511116
100084.972511053
100084.97251099
100084.972510926
100084.972510862
100084.972510797
100084.972510733
100084.972510669
100084.972510606
100084.972510544
100084.972510483
100084.972510424
100084.972510366
100084.972510311
100084.972510257
100084.972510207
100084.972510159
100084.972510113
100084.972510071
100084.972510032
100084.972509996
100084.972509964
100084.972509934
100084.972509908
100084.972509885
100084.972509867
100084.972509858
100084.972509862
100084.972509894
100084.97250998
100084.972510129
100084.972510396
100084.972510652
100084.970234677
100084.970234382
100084.970234109
100084.970233897
100084.970233753
100084.970233657
100084.970233592
100084.970233537
100084.97023349
100084.970233443
100084.970233394
100084.970233344
100084.970233292
100084.970233237
100084.97023318
100084.970233122
100084.970233062
100084.970233
100084.970232938
100084.970232874
100084.97023281
100084.970232746
100084.970232681
100084.970232617
100084.970232553
100084.97023249
100084.970232428
100084.970232367
100084.970232307
100084.970232249
100084.970232194
100084.97023214
100084.97023209
100084.970232041
100084.970231996
100084.970231954
100084.970231915
100084.97023188
100084.970231848
100084.97023182
100084.970231796
100084.970231778
100084.970231767
100084.970231769
100084.970231791
100084.97023185
100084.970231966
100084.970232158
100084.970232424
100084.970232718
100084.967955594
100084.967955331
100084.967955092
100084.967954878
100084.967954726
100084.967954619
100084.967954543
100084.96795448
100084.967954427
100084.967954376
100084.967954325
100084.967954273
100084.96795422
100084.967954165
100084.967954107
100084.967954049
100084.967953988
100084.967953927
100084.967953864
100084.967953801
100084.967953737
100084.967953672
100084.967953608
100084.967953543
100084.967953479
100084.967953416
100084.967953354
100084.967953293
100084.967953233
100084.967953175
100084.967953119
100084.967953066
100084.967953015
100084.967952966
100084.967952921
100084.967952879
100084.96795284
100084.967952805
100084.967952774
100084.967952747
100084.967952726
100084.967952711
100084.967952706
100084.967952717
100084.967952748
100084.96795282
100084.967952942
100084.967953139
100084.967953371
100084.967953635
100084.965675992
100084.965675782
100084.965675585
100084.965675387
100084.965675241
100084.96567513
100084.965675049
100084.965674981
100084.965674924
100084.965674869
100084.965674816
100084.965674763
100084.965674708
100084.965674652
100084.965674595
100084.965674536
100084.965674476
100084.965674414
100084.965674351
100084.965674288
100084.965674224
100084.965674159
100084.965674094
100084.96567403
100084.965673966
100084.965673902
100084.96567384
100084.965673779
100084.965673719
100084.965673661
100084.965673605
100084.965673551
100084.965673499
100084.965673451
100084.965673405
100084.965673363
100084.965673325
100084.96567329
100084.96567326
100084.965673234
100084.965673215
100084.965673203
100084.965673202
100084.965673218
100084.965673255
100084.96567333
100084.965673447
100084.965673627
100084.965673817
100084.965674028
100084.963396183
100084.963396024
100084.963395866
100084.963395691
100084.963395556
100084.963395447
100084.963395364
100084.963395293
100084.963395232
100084.963395176
100084.963395121
100084.963395066
100084.963395011
100084.963394954
100084.963394896
100084.963394837
100084.963394777
100084.963394715
100084.963394652
100084.963394588
100084.963394524
100084.96339446
100084.963394395
100084.96339433
100084.963394266
100084.963394202
100084.96339414
100084.963394078
100084.963394018
100084.96339396
100084.963393904
100084.963393849
100084.963393798
100084.963393749
100084.963393704
100084.963393661
100084.963393623
100084.963393588
100084.963393559
100084.963393534
100084.963393517
100084.963393507
100084.963393509
100084.963393528
100084.963393567
100084.96339364
100084.963393746
100084.963393902
100084.963394052
100084.963394212
100084.961116306
100084.961116188
100084.961116061
100084.96111591
100084.961115789
100084.961115684
100084.961115601
100084.96111553
100084.961115467
100084.961115408
100084.961115352
100084.961115296
100084.96111524
100084.961115183
100084.961115125
100084.961115066
100084.961115005
100084.961114943
100084.96111488
100084.961114816
100084.961114752
100084.961114687
100084.961114623
100084.961114558
100084.961114493
100084.96111443
100084.961114367
100084.961114305
100084.961114245
100084.961114186
100084.96111413
100084.961114075
100084.961114023
100084.961113974
100084.961113929
100084.961113886
100084.961113848
100084.961113814
100084.961113784
100084.961113761
100084.961113744
100084.961113736
100084.96111374
100084.96111376
100084.961113798
100084.961113866
100084.961113959
100084.961114092
100084.961114209
100084.961114327
100084.958836415
100084.958836328
100084.958836226
100084.958836097
100084.958835989
100084.95883589
100084.958835809
100084.958835738
100084.958835674
100084.958835614
100084.958835557
100084.958835501
100084.958835444
100084.958835386
100084.958835328
100084.958835268
100084.958835207
100084.958835145
100084.958835082
100084.958835019
100084.958834954
100084.958834889
100084.958834824
100084.95883476
100084.958834695
100084.958834631
100084.958834568
100084.958834506
100084.958834445
100084.958834386
100084.95883433
100084.958834275
100084.958834223
100084.958834174
100084.958834128
100084.958834085
100084.958834046
100084.958834012
100084.958833983
100084.95883396
100084.958833944
100084.958833937
100084.958833942
100084.958833961
100084.958833998
100084.958834059
100084.95883414
100084.958834249
100084.958834341
100084.958834427
100084.95655653
100084.956556464
100084.956556382
100084.956556272
100084.956556175
100084.956556084
100084.956556006
100084.956555935
100084.956555871
100084.956555811
100084.956555754
100084.956555697
100084.956555639
100084.956555582
100084.956555523
100084.956555463
100084.956555402
100084.95655534
100084.956555277
100084.956555213
100084.956555149
100084.956555084
100084.956555019
100084.956554953
100084.956554889
100084.956554824
100084.956554761
100084.956554699
100084.956554638
100084.956554579
100084.956554522
100084.956554467
100084.956554414
100084.956554365
100084.956554318
100084.956554276
100084.956554237
100084.956554203
100084.956554174
100084.956554151
100084.956554135
100084.956554128
100084.956554132
100084.956554151
100084.956554184
100084.956554239
100084.956554307
100084.956554398
100084.956554469
100084.956554533
100084.954276654
100084.954276604
100084.954276537
100084.954276444
100084.954276357
100084.954276273
100084.954276198
100084.954276129
100084.954276066
100084.954276006
100084.954275948
100084.954275891
100084.954275834
100084.954275776
100084.954275717
100084.954275657
100084.954275596
100084.954275534
100084.95427547
100084.954275406
100084.954275342
100084.954275277
100084.954275211
100084.954275146
100084.954275081
100084.954275017
100084.954274953
100084.954274891
100084.95427483
100084.95427477
100084.954274713
100084.954274657
100084.954274604
100084.954274555
100084.954274508
100084.954274465
100084.954274426
100084.954274391
100084.954274362
100084.954274339
100084.954274323
100084.954274316
100084.954274319
100084.954274336
100084.954274365
100084.954274413
100084.954274471
100084.954274544
100084.954274601
100084.954274649
100084.951996789
100084.95199675
100084.951996694
100084.951996614
100084.951996538
100084.95199646
100084.951996389
100084.951996323
100084.951996261
100084.951996201
100084.951996143
100084.951996086
100084.951996029
100084.951995971
100084.951995912
100084.951995852
100084.95199579
100084.951995728
100084.951995665
100084.951995601
100084.951995536
100084.951995471
100084.951995405
100084.95199534
100084.951995275
100084.95199521
100084.951995146
100084.951995084
100084.951995022
100084.951994962
100084.951994904
100084.951994849
100084.951994796
100084.951994745
100084.951994698
100084.951994655
100084.951994615
100084.95199458
100084.951994551
100084.951994527
100084.951994511
100084.951994503
100084.951994505
100084.951994519
100084.951994544
100084.951994585
100084.951994633
100084.951994693
100084.951994739
100084.951994774
100084.949716933
100084.949716902
100084.949716855
100084.949716787
100084.949716718
100084.949716647
100084.949716581
100084.949716517
100084.949716456
100084.949716397
100084.94971634
100084.949716282
100084.949716225
100084.949716167
100084.949716108
100084.949716048
100084.949715987
100084.949715925
100084.949715861
100084.949715797
100084.949715732
100084.949715667
100084.949715601
100084.949715536
100084.94971547
100084.949715405
100084.949715341
100084.949715278
100084.949715216
100084.949715156
100084.949715098
100084.949715042
100084.949714988
100084.949714938
100084.94971489
100084.949714846
100084.949714806
100084.949714771
100084.949714741
100084.949714717
100084.9497147
100084.94971469
100084.949714691
100084.949714701
100084.949714723
100084.949714757
100084.949714796
100084.949714845
100084.949714881
100084.949714909
100084.947437084
100084.947437059
100084.94743702
100084.947436961
100084.947436899
100084.947436835
100084.947436772
100084.947436711
100084.947436652
100084.947436594
100084.947436537
100084.947436481
100084.947436424
100084.947436366
100084.947436307
100084.947436247
100084.947436186
100084.947436123
100084.94743606
100084.947435996
100084.947435931
100084.947435865
100084.9474358
100084.947435734
100084.947435668
100084.947435603
100084.947435538
100084.947435475
100084.947435413
100084.947435352
100084.947435294
100084.947435237
100084.947435183
100084.947435132
100084.947435084
100084.947435039
100084.947434999
100084.947434963
100084.947434932
100084.947434907
100084.947434889
100084.947434878
100084.947434876
100084.947434884
100084.947434901
100084.947434929
100084.947434961
100084.947435
100084.947435029
100084.947435051
100084.945157242
100084.945157222
100084.945157189
100084.945157137
100084.945157082
100084.945157023
100084.945156964
100084.945156906
100084.945156849
100084.945156793
100084.945156737
100084.94515668
100084.945156624
100084.945156566
100084.945156507
100084.945156448
100084.945156386
100084.945156324
100084.945156261
100084.945156196
100084.945156131
100084.945156066
100084.945156
100084.945155934
100084.945155868
100084.945155802
100084.945155738
100084.945155674
100084.945155611
100084.94515555
100084.945155491
100084.945155434
100084.94515538
100084.945155328
100084.945155279
100084.945155234
100084.945155193
100084.945155156
100084.945155125
100084.945155099
100084.945155079
100084.945155067
100084.945155063
100084.945155067
100084.94515508
100084.945155102
100084.945155128
100084.945155159
100084.945155182
100084.945155199
100084.942877406
100084.942877389
100084.942877361
100084.942877316
100084.942877267
100084.942877212
100084.942877158
100084.942877102
100084.942877047
100084.942876992
100084.942876937
100084.942876882
100084.942876826
100084.942876768
100084.94287671
100084.94287665
100084.942876589
100084.942876527
100084.942876464
100084.942876399
100084.942876334
100084.942876268
100084.942876202
100084.942876136
100084.94287607
100084.942876004
100084.942875939
100084.942875875
100084.942875812
100084.94287575
100084.942875691
100084.942875633
100084.942875578
100084.942875526
100084.942875477
100084.942875431
100084.942875389
100084.942875351
100084.942875319
100084.942875292
100084.942875271
100084.942875257
100084.94287525
100084.942875251
100084.94287526
100084.942875276
100084.942875296
100084.942875321
100084.942875339
100084.942875352
100084.940597574
100084.940597561
100084.940597536
100084.940597497
100084.940597453
100084.940597403
100084.940597352
100084.940597299
100084.940597247
100084.940597193
100084.940597139
100084.940597085
100084.940597029
100084.940596972
100084.940596914
100084.940596855
100084.940596794
100084.940596732
100084.940596668
100084.940596604
100084.940596538
100084.940596473
100084.940596406
100084.94059634
100084.940596273
100084.940596207
100084.940596142
100084.940596078
100084.940596014
100084.940595952
100084.940595892
100084.940595834
100084.940595779
100084.940595726
100084.940595676
100084.940595629
100084.940595586
100084.940595548
100084.940595514
100084.940595486
100084.940595463
100084.940595447
100084.940595438
100084.940595436
100084.940595441
100084.940595452
100084.940595467
100084.940595486
100084.9405955
100084.94059551
100084.938317746
100084.938317735
100084.938317714
100084.93831768
100084.93831764
100084.938317595
100084.938317547
100084.938317498
100084.938317447
100084.938317395
100084.938317343
100084.938317289
100084.938317234
100084.938317178
100084.93831712
100084.938317061
100084.938317
100084.938316938
100084.938316874
100084.93831681
100084.938316745
100084.938316679
100084.938316612
100084.938316546
100084.938316479
100084.938316413
100084.938316347
100084.938316282
100084.938316218
100084.938316156
100084.938316095
100084.938316037
100084.93831598
100084.938315927
100084.938315876
100084.938315829
100084.938315785
100084.938315746
100084.938315711
100084.938315681
100084.938315657
100084.938315639
100084.938315627
100084.938315622
100084.938315623
100084.93831563
100084.93831564
100084.938315654
100084.938315664
100084.938315672
100084.936037922
100084.936037913
100084.936037895
100084.936037865
100084.93603783
100084.936037788
100084.936037744
100084.936037697
100084.936037648
100084.936037599
100084.936037547
100084.936037495
100084.93603744
100084.936037385
100084.936037327
100084.936037268
100084.936037208
100084.936037146
100084.936037082
100084.936037018
100084.936036952
100084.936036886
100084.93603682
100084.936036753
100084.936036686
100084.936036619
100084.936036553
100084.936036488
100084.936036424
100084.936036361
100084.9360363
100084.936036241
100084.936036184
100084.936036129
100084.936036078
100084.93603603
100084.936035985
100084.936035945
100084.936035909
100084.936035877
100084.936035851
100084.936035831
100084.936035817
100084.936035808
100084.936035806
100084.936035808
100084.936035814
100084.936035824
100084.936035831
100084.936035837
100084.933758101
100084.933758094
100084.933758079
100084.933758053
100084.93375802
100084.933757983
100084.933757941
100084.933757897
100084.933757851
100084.933757803
100084.933757753
100084.933757701
100084.933757648
100084.933757592
100084.933757535
100084.933757477
100084.933757416
100084.933757355
100084.933757291
100084.933757227
100084.933757161
100084.933757095
100084.933757028
100084.933756961
100084.933756894
100084.933756827
100084.933756761
100084.933756695
100084.933756631
100084.933756567
100084.933756506
100084.933756446
100084.933756388
100084.933756333
100084.933756281
100084.933756232
100084.933756186
100084.933756145
100084.933756107
100084.933756074
100084.933756046
100084.933756024
100084.933756007
100084.933755996
100084.93375599
100084.933755988
100084.933755991
100084.933755996
100084.933756001
100084.933756004
100084.931478282
100084.931478276
100084.931478264
100084.931478241
100084.931478212
100084.931478178
100084.931478139
100084.931478098
100084.931478054
100084.931478007
100084.931477959
100084.931477908
100084.931477856
100084.931477801
100084.931477745
100084.931477686
100084.931477626
100084.931477565
100084.931477501
100084.931477437
100084.931477371
100084.931477305
100084.931477238
100084.931477171
100084.931477103
100084.931477036
100084.931476969
100084.931476903
100084.931476838
100084.931476775
100084.931476712
100084.931476652
100084.931476594
100084.931476538
100084.931476485
100084.931476435
100084.931476388
100084.931476345
100084.931476306
100084.931476272
100084.931476242
100084.931476218
100084.931476198
100084.931476184
100084.931476174
100084.93147617
100084.931476168
100084.93147617
100084.931476172
100084.931476174
100084.929198465
100084.929198461
100084.92919845
100084.929198431
100084.929198405
100084.929198374
100084.929198338
100084.929198299
100084.929198257
100084.929198212
100084.929198165
100084.929198116
100084.929198064
100084.92919801
100084.929197954
100084.929197897
100084.929197837
100084.929197775
100084.929197712
100084.929197648
100084.929197582
100084.929197516
100084.929197449
100084.929197381
100084.929197314
100084.929197246
100084.929197179
100084.929197112
100084.929197047
100084.929196983
100084.92919692
100084.929196859
100084.9291968
100084.929196743
100084.929196689
100084.929196638
100084.929196591
100084.929196547
100084.929196506
100084.92919647
100084.929196439
100084.929196412
100084.92919639
100084.929196372
100084.92919636
100084.929196352
100084.929196347
100084.929196345
100084.929196345
100084.929196346
100084.926918649
100084.926918646
100084.926918638
100084.926918621
100084.926918598
100084.92691857
100084.926918537
100084.9269185
100084.926918461
100084.926918418
100084.926918372
100084.926918324
100084.926918273
100084.92691822
100084.926918165
100084.926918107
100084.926918048
100084.926917986
100084.926917923
100084.926917859
100084.926917793
100084.926917727
100084.92691766
100084.926917592
100084.926917524
100084.926917456
100084.926917389
100084.926917322
100084.926917256
100084.926917191
100084.926917128
100084.926917066
100084.926917007
100084.926916949
100084.926916894
100084.926916842
100084.926916794
100084.926916748
100084.926916706
100084.926916669
100084.926916635
100084.926916606
100084.926916581
100084.926916561
100084.926916546
100084.926916534
100084.926916527
100084.926916522
100084.92691652
100084.926916519
100084.924638834
100084.924638832
100084.924638826
100084.924638812
100084.924638792
100084.924638767
100084.924638736
100084.924638702
100084.924638664
100084.924638623
100084.924638579
100084.924638532
100084.924638482
100084.92463843
100084.924638375
100084.924638318
100084.924638259
100084.924638198
100084.924638135
100084.924638071
100084.924638005
100084.924637938
100084.924637871
100084.924637803
100084.924637735
100084.924637667
100084.924637599
100084.924637532
100084.924637465
100084.9246374
100084.924637336
100084.924637274
100084.924637213
100084.924637155
100084.924637099
100084.924637046
100084.924636997
100084.92463695
100084.924636907
100084.924636867
100084.924636832
100084.9246368
100084.924636773
100084.924636751
100084.924636732
100084.924636718
100084.924636707
100084.924636699
100084.924636695
100084.924636693
100084.922359019
100084.922359019
100084.922359015
100084.922359004
100084.922358986
100084.922358963
100084.922358935
100084.922358903
100084.922358867
100084.922358828
100084.922358785
100084.922358739
100084.922358691
100084.922358639
100084.922358585
100084.922358528
100084.92235847
100084.922358409
100084.922358346
100084.922358282
100084.922358216
100084.92235815
100084.922358082
100084.922358014
100084.922357946
100084.922357877
100084.922357809
100084.922357741
100084.922357675
100084.922357609
100084.922357544
100084.922357481
100084.92235742
100084.922357361
100084.922357305
100084.922357251
100084.922357199
100084.922357151
100084.922357107
100084.922357066
100084.922357028
100084.922356995
100084.922356965
100084.92235694
100084.922356919
100084.922356901
100084.922356888
100084.922356877
100084.922356871
100084.922356867
100084.920079204
100084.920079206
100084.920079203
100084.920079195
100084.92007918
100084.920079159
100084.920079134
100084.920079104
100084.92007907
100084.920079033
100084.920078991
100084.920078947
100084.920078899
100084.920078848
100084.920078795
100084.920078739
100084.92007868
100084.92007862
100084.920078557
100084.920078493
100084.920078427
100084.920078361
100084.920078293
100084.920078225
100084.920078156
100084.920078087
100084.920078019
100084.920077951
100084.920077884
100084.920077817
100084.920077752
100084.920077689
100084.920077627
100084.920077567
100084.920077509
100084.920077454
100084.920077402
100084.920077353
100084.920077306
100084.920077264
100084.920077224
100084.920077189
100084.920077157
100084.920077129
100084.920077105
100084.920077085
100084.920077068
100084.920077055
100084.920077047
100084.920077041
100084.917799389
100084.917799392
100084.917799392
100084.917799386
100084.917799373
100084.917799355
100084.917799332
100084.917799305
100084.917799273
100084.917799236
100084.917799197
100084.917799153
100084.917799106
100084.917799056
100084.917799004
100084.917798948
100084.91779889
100084.91779883
100084.917798767
100084.917798703
100084.917798638
100084.917798571
100084.917798503
100084.917798435
100084.917798366
100084.917798297
100084.917798228
100084.91779816
100084.917798092
100084.917798025
100084.917797959
100084.917797895
100084.917797833
100084.917797772
100084.917797714
100084.917797657
100084.917797604
100084.917797553
100084.917797506
100084.917797461
100084.91779742
100084.917797382
100084.917797348
100084.917797318
100084.917797291
100084.917797268
100084.917797249
100084.917797233
100084.917797223
100084.917797216
100084.915519573
100084.915519578
100084.915519579
100084.915519576
100084.915519566
100084.91551955
100084.91551953
100084.915519504
100084.915519474
100084.915519439
100084.915519401
100084.915519359
100084.915519313
100084.915519264
100084.915519212
100084.915519157
100084.915519099
100084.915519039
100084.915518977
100084.915518913
100084.915518847
100084.915518781
100084.915518713
100084.915518644
100084.915518575
100084.915518506
100084.915518437
100084.915518368
100084.9155183
100084.915518232
100084.915518166
100084.915518101
100084.915518038
100084.915517976
100084.915517917
100084.91551786
100084.915517805
100084.915517753
100084.915517704
100084.915517658
100084.915517615
100084.915517575
100084.915517539
100084.915517506
100084.915517477
100084.915517451
100084.915517429
100084.915517411
100084.915517398
100084.91551739
100084.913239756
100084.913239762
100084.913239766
100084.913239765
100084.913239757
100084.913239744
100084.913239726
100084.913239702
100084.913239674
100084.913239641
100084.913239604
100084.913239563
100084.913239518
100084.91323947
100084.913239419
100084.913239364
100084.913239307
100084.913239247
100084.913239185
100084.913239121
100084.913239056
100084.913238989
100084.913238921
100084.913238852
100084.913238783
100084.913238714
100084.913238644
100084.913238575
100084.913238506
100084.913238438
100084.913238372
100084.913238306
100084.913238242
100084.91323818
100084.913238119
100084.913238061
100084.913238006
100084.913237952
100084.913237902
100084.913237854
100084.913237809
100084.913237768
100084.913237729
100084.913237694
100084.913237662
100084.913237633
100084.913237609
100084.913237588
100084.913237573
100084.913237563
100084.910959938
100084.910959945
100084.910959951
100084.910959953
100084.910959948
100084.910959937
100084.910959921
100084.910959899
100084.910959873
100084.910959842
100084.910959806
100084.910959766
100084.910959722
100084.910959675
100084.910959624
100084.91095957
100084.910959513
100084.910959454
100084.910959392
100084.910959329
100084.910959263
100084.910959196
100084.910959128
100084.910959059
100084.91095899
100084.91095892
100084.91095885
100084.910958781
100084.910958712
100084.910958643
100084.910958576
100084.91095851
100084.910958445
100084.910958382
100084.910958321
100084.910958262
100084.910958205
100084.91095815
100084.910958098
100084.910958049
100084.910958002
100084.910957959
100084.910957918
100084.91095788
100084.910957846
100084.910957815
100084.910957788
100084.910957764
100084.910957747
100084.910957735
100084.908680118
100084.908680127
100084.908680135
100084.90868014
100084.908680137
100084.908680129
100084.908680114
100084.908680095
100084.90868007
100084.90868004
100084.908680006
100084.908679967
100084.908679925
100084.908679878
100084.908679828
100084.908679774
100084.908679718
100084.908679659
100084.908679598
100084.908679534
100084.908679469
100084.908679402
100084.908679334
100084.908679265
100084.908679195
100084.908679125
100084.908679055
100084.908678985
100084.908678915
100084.908678847
100084.908678779
100084.908678712
100084.908678647
100084.908678583
100084.908678521
100084.90867846
100084.908678402
100084.908678347
100084.908678293
100084.908678242
100084.908678194
100084.908678149
100084.908678106
100084.908678066
100084.908678029
100084.908677995
100084.908677966
100084.908677939
100084.908677919
100084.908677906
100084.906400295
100084.906400307
100084.906400317
100084.906400325
100084.906400324
100084.906400318
100084.906400306
100084.906400289
100084.906400266
100084.906400237
100084.906400205
100084.906400167
100084.906400125
100084.906400079
100084.90640003
100084.906399977
100084.906399921
100084.906399862
100084.906399801
100084.906399738
100084.906399672
100084.906399605
100084.906399537
100084.906399468
100084.906399398
100084.906399328
100084.906399258
100084.906399187
100084.906399118
100084.906399048
100084.90639898
100084.906398912
100084.906398846
100084.906398782
100084.906398719
100084.906398658