/*--------------------------------*- C++ -*----------------------------------*\
  =========                 |
  \\      /  F ield         | OpenFOAM: The Open Source CFD Toolbox
   \\    /   O peration     | Website:  https://openfoam.org
    \\  /    A nd           | Version:  10
     \\/     M anipulation  |
\*---------------------------------------------------------------------------*/
FoamFile
{
    format      ascii;
    class       volScalarField;
    location    "4.6";
    object      p_rgh;
}
// * * * * * * * * * * * * * * * * * * * * * * * * * * * * * * * * * * * * * //

dimensions      [1 -1 -2 0 0 0 0];

internalField   nonuniform List<scalar> 
2500
(
85.0971297923097
85.0971365529404
85.0971442758746
85.0971489682852
85.0971513479599
85.0971525194618
85.0971530616225
85.0971532937256
85.0971533766569
85.0971533876
85.0971533654229
85.0971533266857
85.0971532791737
85.0971532267722
85.0971531710529
85.0971531129762
85.0971530528623
85.0971529913804
85.0971529288654
85.0971528654336
85.0971528014197
85.0971527371294
85.0971526727953
85.0971526086796
85.0971525450732
85.0971524822526
85.0971524204651
85.0971523599583
85.0971523010667
85.0971522439504
85.0971521889587
85.0971521362226
85.0971520859894
85.0971520384483
85.0971519937302
85.0971519518062
85.0971519124869
85.097151875234
85.0971518383594
85.0971517986036
85.0971517481084
85.0971516696736
85.0971515251294
85.0971512380638
85.0971506495844
85.097149447276
85.0971470493387
85.0971423210576
85.0971344892023
85.0971278497891
85.097613606049
85.0976359270717
85.0976562005817
85.0976683627669
85.0976747899113
85.0976780508208
85.0976796250179
85.0976803396334
85.0976806346152
85.0976807331463
85.0976807447587
85.0976807184197
85.0976806752733
85.0976806242688
85.0976805690152
85.0976805110404
85.0976804510283
85.0976803895755
85.0976803270169
85.0976802635851
85.0976801995857
85.0976801353245
85.0976800709905
85.0976800068893
85.0976799432683
85.0976798804186
85.0976798185875
85.0976797580806
85.0976796991308
85.0976796420146
85.0976795869501
85.097679534214
85.0976794838934
85.0976794362359
85.0976793913869
85.0976793492155
85.0976793092559
85.0976792701695
85.0976792282745
85.0976791745488
85.0976790871937
85.0976789163833
85.0976785532694
85.0976777783071
85.0976761602797
85.0976728849637
85.09766646153
85.0976542270364
85.0976336368185
85.0976116555248
85.0980773796909
85.0981096889736
85.0981357751443
85.0981510544661
85.0981590708834
85.0981631156319
85.098165065574
85.0981659528188
85.0981663230777
85.098166452517
85.0981664759602
85.0981664538849
85.0981664122082
85.098166361684
85.0981663065759
85.0981662486302
85.0981661886763
85.0981661272526
85.0981660646939
85.0981660012767
85.0981659372919
85.0981658730161
85.0981658087112
85.0981657445664
85.0981656809308
85.0981656180375
85.0981655561773
85.0981654956122
85.0981654366187
85.0981653794297
85.098165324307
85.0981652714981
85.0981652210758
85.0981651733018
85.0981651283364
85.0981650860485
85.0981650458561
85.0981650061731
85.098164962692
85.0981649044843
85.0981648049201
85.0981646028085
85.0981641640246
85.0981632165785
85.0981612241449
85.0981571658922
85.0981491425919
85.0981337276316
85.0981071211136
85.0980747412104
85.098451530328
85.0984841216996
85.0985073926713
85.0985204795579
85.0985270795645
85.0985302888876
85.0985317881568
85.0985324507055
85.0985327173112
85.0985328021052
85.0985328074312
85.098532778371
85.0985327341332
85.0985326826922
85.0985326272639
85.0985325692309
85.098532509277
85.0985324478679
85.0985323853238
85.0985323219065
85.0985322579363
85.098532193646
85.0985321293265
85.0985320651962
85.0985320015025
85.0985319385654
85.098531876647
85.0985318159946
85.0985317569284
85.0985316996375
85.098531644413
85.0985315915023
85.0985315409926
85.0985314931168
85.0985314481077
85.0985314058489
85.0985313659621
85.0985313273413
85.0985312869016
85.0985312366975
85.0985311572294
85.0985310030082
85.0985306720104
85.0985299524182
85.0985284086055
85.0985251718666
85.0985185345198
85.0985052662436
85.0984813994583
85.0984481816558
85.0987128787674
85.098739010893
85.0987558508787
85.0987649247254
85.0987693158386
85.0987713678478
85.0987722922437
85.0987726836902
85.0987728297332
85.0987728637701
85.0987728487089
85.0987728117616
85.0987727645697
85.0987727120228
85.0987726562016
85.0987725980085
85.0987725380255
85.0987724766164
85.0987724140869
85.0987723506987
85.0987722867139
85.0987722224236
85.0987721580605
85.098772093872
85.0987720301491
85.0987719671393
85.0987719051336
85.098771844423
85.0987717852113
85.0987717278185
85.098771672463
85.0987716194068
85.0987715687952
85.0987715208466
85.0987714757794
85.0987714335497
85.0987713940267
85.0987713565701
85.0987713193899
85.0987712777714
85.0987712201604
85.0987711192865
85.0987709124165
85.0987704673171
85.0987694985379
85.0987674119533
85.0987629713491
85.0987537221372
85.0987363315216
85.0987092716678
85.0988744219794
85.0988921008975
85.0989025065937
85.0989078629063
85.0989103436732
85.0989114496333
85.0989119233273
85.0989121075399
85.098912162488
85.0989121581224
85.0989121273742
85.0989120841696
85.0989120344748
85.0989119809383
85.0989119246806
85.098911866342
85.0989118062862
85.0989117448771
85.098911682333
85.0989116189448
85.0989115549601
85.0989114906261
85.0989114262193
85.0989113619726
85.0989112981915
85.0989112350944
85.0989111730014
85.0989111121598
85.0989110528462
85.0989109952934
85.098910939807
85.098910886576
85.098910835819
85.0989107877685
85.098910742614
85.098910700428
85.0989106612105
85.0989106246998
85.0989105900662
85.0989105549816
85.0989105136832
85.0989104524342
85.0989103384782
85.0989101026207
85.0989095854165
85.0989084436442
85.0989059167186
85.0989004245494
85.0988895921037
85.0988710030069
85.0989643295325
85.0989747712447
85.0989804199344
85.0989831720071
85.0989843781426
85.0989848768659
85.098985069053
85.0989851252089
85.0989851235645
85.0989850948245
85.0989850537007
85.0989850060578
85.0989849544421
85.098984900018
85.0989848433528
85.0989847847959
85.0989847246674
85.0989846632001
85.0989846006414
85.0989845372096
85.0989844731957
85.0989844088326
85.0989843443822
85.0989842800627
85.0989842161944
85.09898415301
85.098984090786
85.0989840298134
85.0989839703398
85.0989839126269
85.0989838569367
85.0989838035457
85.0989837526431
85.0989837044617
85.0989836592053
85.0989836170484
85.0989835780783
85.0989835423097
85.0989835095097
85.0989834788197
85.0989834479988
85.0989834114298
85.0989833546482
85.0989832475025
85.0989830122562
85.0989824782882
85.0989812338667
85.0989783906698
85.0989724558021
85.0989613083948
85.0990100061172
85.0990155042527
85.0990182362439
85.0990194629267
85.0990199512744
85.099020117661
85.0990201581881
85.0990201451204
85.0990201121022
85.0990200692031
85.0990200215747
85.0990199708758
85.0990199177322
85.0990198625514
85.0990198054496
85.099019746689
85.0990196864295
85.099019624904
85.0990195622726
85.0990194988117
85.0990194347542
85.0990193703328
85.0990193057951
85.0990192414029
85.0990191774181
85.0990191141173
85.0990190517623
85.0990189906151
85.0990189309814
85.0990188730793
85.0990188172291
85.0990187636198
85.099018712528
85.0990186641866
85.0990186188283
85.0990185766714
85.0990185379051
85.099018502704
85.0990184712136
85.099018443434
85.0990184189723
85.0990183965041
85.0990183710528
85.0990183331451
85.0990182493697
85.0990180480876
85.0990175274637
85.0990162436501
85.0990133407031
85.0990073789435
85.0990314177179
85.0990340277203
85.0990352016961
85.0990356492402
85.0990357836126
85.0990357895644
85.0990357571718
85.0990357100382
85.0990356607217
85.0990356098337
85.0990355581162
85.0990355052345
85.0990354508976
85.0990353950037
85.0990353375237
85.0990352785157
85.0990352181107
85.0990351564687
85.0990350937936
85.0990350302745
85.0990349661442
85.0990349016356
85.0990348370105
85.0990347725165
85.0990347084153
85.0990346449689
85.0990345824539
85.0990345211321
85.0990344612947
85.0990344031889
85.0990343471058
85.0990342932782
85.0990342419827
85.0990341934667
85.0990341479919
85.0990341058205
85.0990340671851
85.0990340324352
85.0990340019198
85.0990339760756
85.0990339554846
85.0990339407726
85.0990339314158
85.0990339273121
85.0990339161071
85.0990338750416
85.0990337114199
85.0990332272195
85.0990319591801
85.0990290809132
85.0990407538629
85.0990418705769
85.0990423014009
85.0990423964104
85.0990423765907
85.0990423141047
85.0990422501782
85.0990421875758
85.0990421300376
85.0990420746384
85.0990420202725
85.0990419658046
85.0990419104928
85.0990418539732
85.0990417961002
85.0990417368594
85.0990416763088
85.0990416145651
85.0990415517881
85.0990414881962
85.0990414239932
85.0990413593972
85.0990412946558
85.0990412300307
85.099041165784
85.0990411021776
85.0990410394879
85.099040977977
85.0990409179212
85.0990408595826
85.0990408032521
85.0990407491918
85.0990406976634
85.0990406489582
85.0990406033234
85.0990405610792
85.0990405225602
85.0990404881159
85.099040458299
85.099040433779
85.09904041556
85.0990404051117
85.0990404037293
85.0990404148033
85.0990404347685
85.0990404617623
85.0990404533077
85.0990403320175
85.099039851164
85.0990385941259
85.0990445593343
85.0990449801757
85.0990450917307
85.0990450471581
85.0990449698875
85.099044882998
85.0990448073862
85.0990447384829
85.099044676972
85.0990446190117
85.0990445629141
85.0990445072675
85.0990444511554
85.0990443941409
85.0990443359333
85.0990442764596
85.099044215749
85.0990441538888
85.0990440910246
85.0990440273454
85.0990439630405
85.0990438983281
85.0990438334702
85.0990437687142
85.0990437043074
85.0990436405118
85.0990435776184
85.0990435158747
85.0990434555861
85.0990433970001
85.0990433404222
85.0990432860854
85.0990432343096
85.099043185357
85.0990431395476
85.099043097187
85.0990430586535
85.0990430244274
85.0990429950762
85.0990429714293
85.0990429546655
85.0990429465164
85.0990429488593
85.0990429659723
85.0990429973317
85.0990430483362
85.0990430974343
85.0990431202372
85.0990429810045
85.099042492162
85.0990460100875
85.0990461368056
85.0990461264591
85.0990460374014
85.0990459448658
85.0990458528831
85.0990457745793
85.0990457038279
85.0990456406143
85.0990455812716
85.099045524039
85.0990454675775
85.0990454108687
85.0990453534323
85.0990452949336
85.0990452352708
85.0990451744001
85.0990451124235
85.0990450494573
85.0990449856763
85.0990449212695
85.0990448564407
85.0990447914519
85.0990447265358
85.0990446619544
85.0990445979696
85.099044534858
85.0990444728814
85.0990444123308
85.0990443534683
85.0990442965849
85.0990442419716
85.0990441898903
85.0990441406757
85.0990440946189
85.0990440520982
85.0990440134919
85.0990439793386
85.0990439502639
85.0990439271118
85.0990439111629
85.0990439040906
85.0990439078887
85.0990439265879
85.0990439604211
85.0990440162132
85.0990440803871
85.0990441493486
85.0990441422473
85.099043984068
85.0990465230279
85.0990465381183
85.0990464891947
85.0990463937487
85.0990463024937
85.0990462132759
85.0990461361798
85.0990460658359
85.0990460022149
85.099045942261
85.0990458844317
85.0990458274318
85.0990457703156
85.099045712559
85.099045653842
85.0990455940046
85.0990455330175
85.0990454709536
85.0990454079001
85.0990453440027
85.099045279494
85.0990452145488
85.0990451494145
85.0990450843237
85.0990450195532
85.0990449553501
85.0990448920056
85.0990448297671
85.0990447689401
85.099044709772
85.099044652583
85.0990445976349
85.099044545248
85.0990444957133
85.0990444493655
85.0990444065974
85.0990443678311
85.0990443335904
85.0990443045448
85.0990442815819
85.0990442659095
85.0990442591283
85.0990442630573
85.0990442811162
85.0990443135233
85.0990443663177
85.099044429051
85.0990445048519
85.0990445406205
85.0990445108182
85.0990466865769
85.0990466655494
85.0990466098738
85.0990465213108
85.0990464368952
85.0990463532653
85.0990462791233
85.0990462103218
85.0990461471374
85.0990460871981
85.0990460291505
85.0990459718741
85.099045914525
85.0990458565793
85.0990457977023
85.0990457377629
85.099045676674
85.0990456145228
85.0990455513675
85.0990454873827
85.0990454227576
85.0990453576669
85.099045292387
85.0990452271217
85.0990451621474
85.0990450977115
85.0990450341051
85.0990449716046
85.099044910472
85.0990448509838
85.0990447934601
85.0990447381628
85.0990446853975
85.0990446355136
85.099044588831
85.0990445457428
85.0990445067
85.0990444722411
85.0990444430499
85.0990444199706
85.0990444041672
85.0990443970513
85.0990444002382
85.0990444164927
85.099044445742
85.0990444927593
85.0990445484786
85.0990446174401
85.0990446616197
85.0990446751093
85.0990467298107
85.0990467009105
85.0990466490912
85.0990465707873
85.0990464945062
85.099046417221
85.0990463467606
85.0990462801856
85.0990462180343
85.0990461585316
85.0990461006004
85.0990460433095
85.0990459858876
85.0990459278692
85.0990458689339
85.0990458089218
85.0990457477747
85.0990456855507
85.0990456223226
85.099045558236
85.0990454934945
85.0990454282728
85.0990453628183
85.0990452973638
85.0990452321857
85.099045167517
85.0990451036341
85.0990450408281
85.0990449793753
85.0990449195524
85.0990448616503
85.0990448059747
85.0990447528311
85.0990447025397
85.0990446554497
85.0990446119686
85.099044572562
85.0990445377392
85.0990445081989
85.0990444847266
85.0990444684285
85.0990444605122
85.0990444623603
85.0990444761119
85.099044501505
85.0990445419447
85.0990445894131
85.0990446480282
85.0990446889919
85.0990447131189
85.0990467366792
85.0990467092925
85.0990466639487
85.0990465958021
85.0990465273644
85.0990464564384
85.099046389907
85.0990463259222
85.0990462651971
85.0990462065092
85.0990461490001
85.0990460919129
85.0990460345784
85.0990459766035
85.0990459176683
85.0990458576416
85.0990457964654
85.0990457341977
85.0990456708969
85.0990456067375
85.0990455418796
85.099045476527
85.0990454108978
85.0990453452541
85.0990452798433
85.0990452149126
85.0990451507678
85.0990450876416
85.0990450258541
85.0990449656529
85.0990449073724
85.0990448512748
85.0990447976947
85.0990447469521
85.099044699411
85.0990446554642
85.0990446155629
85.0990445802599
85.0990445501811
85.0990445260977
85.0990445089701
85.0990444998752
85.0990444999479
85.0990445108328
85.0990445320494
85.0990445659409
85.0990446054202
85.0990446537762
85.0990446885116
85.0990447122313
85.0990467361116
85.0990467125375
85.0990466735529
85.0990466144431
85.099046553165
85.0990464882489
85.0990464257047
85.0990463644994
85.0990463055059
85.0990462479094
85.0990461910551
85.0990461343608
85.0990460772737
85.0990460194298
85.0990459605819
85.0990459005989
85.0990458394372
85.0990457771404
85.0990457137959
85.0990456495492
85.0990455845895
85.0990455190913
85.0990454532875
85.0990453874547
85.0990453217964
85.0990452566184
85.099045192168
85.0990451287216
85.0990450665704
85.0990450059908
85.0990449472883
85.0990448907542
85.0990448366938
85.0990447854565
85.0990447373915
85.0990446929063
85.0990446524374
85.0990446165088
85.0990445857315
85.0990445608186
85.0990445426141
85.0990445320494
85.0990445300704
85.0990445378266
85.0990445547941
85.0990445824864
85.0990446146898
85.0990446539072
85.0990446823271
85.099044702627
85.0990467371885
85.0990467175143
85.0990466841322
85.0990466327785
85.0990465778596
85.0990465185023
85.0990464598872
85.0990464015922
85.0990463445196
85.0990462882037
85.0990462322079
85.0990461760666
85.0990461193578
85.0990460617613
85.0990460030735
85.0990459431923
85.0990458820888
85.0990458197921
85.0990457564185
85.099045692099
85.0990456270229
85.0990455613937
85.0990454954299
85.0990454293787
85.0990453634877
85.0990452980332
85.0990452332771
85.0990451694961
85.0990451069665
85.0990450459794
85.0990449868405
85.0990449298261
85.0990448752564
85.0990448234952
85.0990447748482
85.0990447297518
85.0990446886135
85.0990446519427
85.0990446203214
85.0990445943899
85.0990445749048
85.0990445626376
85.0990445583739
85.0990445628995
85.0990445756906
85.0990445975622
85.09904462329
85.0990446546202
85.0990446774813
85.0990446940123
85.0990467422525
85.0990467259544
85.0990466973453
85.0990466526273
85.0990466033254
85.0990465490904
85.0990464942734
85.0990464388888
85.099046383868
85.0990463290218
85.0990462740301
85.0990462186019
85.0990461623733
85.0990461051115
85.099046046671
85.0990459869354
85.0990459259046
85.099045863637
85.0990458002489
85.0990457358857
85.0990456707077
85.0990456049331
85.0990455388092
85.0990454725397
85.0990454064158
85.0990453406703
85.0990452755941
85.0990452114638
85.0990451485413
85.0990450871323
85.0990450275131
85.0990449700039
85.0990449149103
85.0990448625525
85.0990448132943
85.0990447674994
85.099044725619
85.0990446881042
85.0990446554933
85.0990446283977
85.0990446074575
85.099044593313
85.0990445866191
85.0990445878851
85.0990445966017
85.0990446131182
85.0990446330543
85.0990446576616
85.0990446757496
85.0990446889336
85.0990467515367
85.0990467381052
85.0990467135416
85.0990466744988
85.0990466302028
85.0990465806244
85.0990465294599
85.0990464769566
85.0990464240749
85.0990463707858
85.0990463169437
85.0990462623304
85.0990462066984
85.0990461498586
85.0990460917092
85.0990460321773
85.0990459712775
85.0990459090826
85.0990458456945
85.0990457812877
85.0990457160224
85.0990456501313
85.0990455838182
85.0990455173451
85.0990454509592
85.0990453849372
85.0990453195409
85.0990452550323
85.0990451917169
85.0990451298567
85.0990450697573
85.0990450117242
85.0990449560486
85.0990449030651
85.0990448531229
85.0990448065859
85.099044763876
85.0990447254298
85.0990446917276
85.0990446633368
85.0990446408105
85.0990446246724
85.0990446154465
85.0990446134674
85.0990446182404
85.0990446298238
85.099044644594
85.0990446634096
85.0990446774376
85.0990446877549
85.0990467646479
85.0990467536176
85.0990467325319
85.0990466983931
85.0990466585645
85.0990466132644
85.0990465655486
85.0990465158975
85.0990464651841
85.0990464135539
85.0990463609342
85.0990463072521
85.0990462522896
85.0990461959445
85.0990461381443
85.0990460788598
85.0990460181347
85.0990459560271
85.0990458926681
85.0990458282322
85.0990457628941
85.0990456968721
85.0990456303844
85.0990455637075
85.0990454970743
85.0990454307612
85.0990453650156
85.0990453001432
85.0990452364058
85.0990451740945
85.0990451134858
85.0990450548852
85.099044998613
85.0990449449746
85.0990448943048
85.0990448469674
85.0990448033554
85.0990447638906
85.0990447290096
85.0990446992073
85.0990446749784
85.0990446567594
85.0990446449723
85.0990446397918
85.0990446407959
85.0990446478245
85.0990446579526
85.0990446717187
85.0990446822252
85.0990446901269
85.0990467810625
85.0990467720549
85.0990467540396
85.0990467241936
85.0990466883813
85.0990466470103
85.0990466025833
85.0990465556824
85.0990465071663
85.0990464572387
85.0990464059287
85.0990463532216
85.0990462990158
85.0990462432383
85.0990461858601
85.0990461268666
85.0990460663306
85.0990460043249
85.0990459410241
85.0990458765737
85.0990458111628
85.0990457450243
85.0990456783766
85.0990456114814
85.0990455445863
85.0990454779821
85.0990454119019
85.0990453466366
85.0990452824772
85.0990452196856
85.0990451585531
85.099045099385
85.099045042487
85.0990449881501
85.0990449367091
85.0990448885277
85.0990448439552
85.0990448033845
85.0990447672521
85.0990447359509
85.0990447099466
85.0990446895885
85.0990446752112
85.099044666902
85.0990446642827
85.0990446671203
85.0990446730284
85.0990446823562
85.0990446897631
85.0990446955839
85.0990468001401
85.0990467929514
85.0990467776428
85.0990467516094
85.0990467194497
85.0990466816875
85.0990466403891
85.0990465961659
85.099046549818
85.0990465016221
85.0990464516944
85.0990464000351
85.0990463466442
85.0990462914779
85.0990462345508
85.099046175892
85.0990461155743
85.0990460537287
85.099045990486
85.0990459260356
85.0990458605665
85.0990457943117
85.0990457275038
85.099045660405
85.0990455932624
85.0990455263527
85.0990454599232
85.0990453942795
85.099045329669
85.0990452663973
85.0990452047263
85.0990451449616
85.0990450874087
85.0990450323443
85.0990449801029
85.0990449310193
85.0990448854282
85.0990448437224
85.0990448062512
85.0990447734075
85.0990447455697
85.0990447230288
85.0990447060612
85.0990446946962
85.0990446886426
85.0990446875658
85.0990446896176
85.0990446950163
85.0990446996439
85.0990447035874
85.099046821415
85.0990468158561
85.0990468030213
85.0990467804222
85.0990467515949
85.0990467171941
85.0990466788644
85.0990466372168
85.0990465930372
85.0990465465875
85.0990464980423
85.0990464475035
85.0990463949711
85.0990463404742
85.0990462840418
85.0990462257469
85.0990461656911
85.0990461040055
85.0990460408502
85.0990459764143
85.0990459109016
85.0990458445449
85.0990457775915
85.0990457102744
85.0990456428844
85.0990455756546
85.0990455088904
85.0990454428393
85.0990453777922
85.0990453140112
85.0990452518017
85.0990451914258
85.0990451331891
85.0990450773679
85.0990450242971
85.0990449742822
85.0990449276433
85.0990448847151
85.0990448458615
85.0990448114171
85.0990447817167
85.0990447569784
85.0990447374352
85.0990447231161
85.0990447137592
85.0990447090444
85.0990447075455
85.0990447093645
85.09904471146
85.099044713701
85.0990468443488
85.0990468402888
85.0990468297532
85.0990468102827
85.0990467845404
85.0990467532683
85.0990467177617
85.0990466786316
85.099046636562
85.099046591873
85.0990465447685
85.0990464953647
85.09904644372
85.0990463899216
85.0990463340277
85.0990462761401
85.0990462163754
85.099046154879
85.0990460918256
85.0990460274188
85.0990459618624
85.0990458954184
85.099045828305
85.0990457607986
85.0990456931468
85.0990456256259
85.0990455585124
85.0990454920538
85.0990454265557
85.0990453622799
85.0990452995029
85.0990452385013
85.0990451795515
85.0990451229736
85.0990450690297
85.0990450180398
85.0990449703095
85.099044926159
85.0990448858938
85.0990448498051
85.0990448181838
85.0990447912627
85.0990447691875
85.0990447519725
85.0990447394724
85.0990447313234
85.0990447265212
85.0990447250515
85.099044724775
85.0990447254444
85.0990468684904
85.0990468658565
85.0990468574746
85.0990468409145
85.0990468180535
85.0990467897354
85.0990467569209
85.0990467202209
85.0990466802323
85.0990466372896
85.0990465916257
85.0990465433861
85.0990464926872
85.0990464396164
85.0990463843045
85.099046326839
85.0990462673799
85.0990462060872
85.0990461431502
85.0990460787871
85.0990460132161
85.0990459466848
85.0990458794404
85.0990458117303
85.0990457438311
85.0990456760046
85.0990456085419
85.0990455416904
85.0990454757266
85.0990454109415
85.0990453475824
85.0990452859405
85.0990452262922
85.099045168914
85.099045114097
85.0990450621175
85.0990450132667
85.0990449678357
85.0990449261153
85.0990448883676
85.09904485484
85.0990448257216
85.099044801158
85.0990447811491
85.0990447656077
85.0990447542135
85.0990447463118
85.0990447417716
85.0990447392687
85.0990447384393
85.0990468933742
85.0990468921082
85.0990468857926
85.0990468719683
85.0990468518285
85.099046826319
85.0990467960946
85.0990467617376
85.0990467238007
85.0990466825751
85.0990466383519
85.0990465913055
85.0990465415671
85.0990464892675
85.0990464345377
85.0990463775233
85.0990463183989
85.0990462573391
85.0990461945476
85.0990461302426
85.0990460646572
85.099045998053
85.0990459306631
85.0990458627639
85.0990457946173
85.0990457264998
85.0990456586733
85.0990455914289
85.0990455249994
85.0990454596904
85.0990453957638
85.0990453334816
85.0990452731057
85.0990452149272
85.0990451592079
85.0990451062098
85.099045056224
85.0990450094978
85.0990449663077
85.0990449268866
85.0990448914526
85.0990448601515
85.0990448331431
85.099044810413
85.0990447919467
85.0990447774675
85.0990447666118
85.0990447591757
85.0990447545191
85.0990447522345
85.099046918549
85.0990469186654
85.0990469143435
85.0990469031676
85.0990468856326
85.0990468628006
85.0990468350501
85.0990468029922
85.099046767049
85.0990467275551
85.099046684787
85.0990466389194
85.0990465901559
85.0990465386421
85.0990464845236
85.0990464279894
85.0990463692142
85.0990463084017
85.0990462457557
85.0990461815381
85.0990461159527
85.0990460492758
85.0990459817549
85.0990459136665
85.099045845287
85.0990457768785
85.0990457087173
85.0990456410509
85.0990455741849
85.099045508352
85.0990454438434
85.0990453809063
85.0990453198028
85.0990452608094
85.0990452041733
85.0990451501566
85.0990450990066
85.0990450509853
85.0990450063109
85.0990449652018
85.0990449278615
85.0990448944212
85.0990448649973
85.0990448396187
85.0990448183438
85.0990448008961
85.0990447872173
85.0990447769873
85.0990447702352
85.0990447665245
85.0990469436219
85.0990469451062
85.0990469427634
85.0990469341632
85.0990469191311
85.0990468988894
85.0990468735545
85.0990468437085
85.0990468097298
85.0990467719239
85.0990467305965
85.0990466859512
85.0990466381627
85.0990465874493
85.099046533971
85.0990464779316
85.0990464195202
85.0990463589696
85.0990462964983
85.0990462323534
85.0990461667825
85.0990461000474
85.0990460324247
85.0990459641616
85.0990458955348
85.0990458268352
85.0990457583248
85.0990456902655
85.0990456229483
85.0990455565916
85.0990454915009
85.099045427909
85.0990453660779
85.099045306255
85.0990452487022
85.0990451936523
85.0990451413527
85.0990450920071
85.099045045863
85.0990450030804
85.0990449638339
85.0990449282835
85.0990448964876
85.0990448685334
85.0990448445227
85.0990448242228
85.0990448078082
85.099044794857
85.0990447860386
85.0990447808726
85.0990469682292
85.0990469711251
85.0990469707758
85.0990469647077
85.0990469521057
85.0990469343815
85.0990469113895
85.0990468837117
85.0990468516538
85.0990468155214
85.0990467756346
85.0990467321826
85.0990466853982
85.0990466354997
85.0990465826617
85.099046527117
85.0990464690985
85.0990464088245
85.0990463465278
85.0990462824702
85.0990462169284
85.0990461501497
85.0990460824105
85.0990460139728
85.0990459451423
85.0990458761516
85.0990458073065
85.0990457388543
85.0990456710715
85.09904560422
85.0990455385327
85.0990454743005
85.0990454117273
85.0990453510894
85.0990452926198
85.0990452365368
85.0990451830585
85.0990451324033
85.0990450847748
85.0990450403333
85.0990449992241
85.0990449615783
85.0990449274832
85.0990448969969
85.0990448703378
85.0990448472294
85.0990448281664
85.0990448125231
85.0990448016382
85.0990447950026
85.0990469919489
85.099046996329
85.0990469979733
85.0990469944372
85.0990469842509
85.0990469689859
85.099046948264
85.0990469227108
85.0990468925447
85.0990468580712
85.099046819596
85.0990467773518
85.0990467315714
85.0990466824733
85.0990466303047
85.0990465752839
85.0990465176728
85.0990464576753
85.0990463955823
85.0990463316411
85.0990462661284
85.099046199306
85.099046131465
85.0990460628818
85.0990459938039
85.0990459245513
85.0990458553715
85.099045786541
85.099045718307
85.0990456509317
85.0990455846913
85.0990455197898
85.0990454565035
85.0990453950508
85.0990453356499
85.0990452785336
85.0990452239057
85.0990451719554
85.0990451228427
85.0990450767567
85.0990450337995
85.0990449941019
85.0990449577366
85.0990449247911
85.0990448955563
85.0990448697266
85.0990448480443
85.0990448297089
85.0990448166995
85.0990448085358
85.0990470144316
85.0990470203833
85.099047024094
85.0990470231627
85.0990470153483
85.0990470025135
85.0990469840181
85.0990469605313
85.0990469322132
85.0990468993696
85.0990468622913
85.0990468212403
85.0990467764495
85.0990467281954
85.0990466766816
85.0990466221992
85.0990465649811
85.0990465052892
85.0990464433999
85.0990463795606
85.0990463140915
85.0990462472546
85.0990461793263
85.099046110583
85.0990460413159
85.0990459718014
85.0990459022869
85.099045833078
85.0990457644075
85.0990456965374
85.0990456297295
85.0990455641877
85.0990455001738
85.0990454379062
85.099045377603
85.0990453194536
85.0990452636761
85.0990452104452
85.0990451598918
85.0990451121761
85.0990450673999
85.0990450256941
85.0990449871169
85.0990449517703
85.0990449200035
85.0990448914818
85.0990448672237
85.0990448461525
85.0990448309894
85.099044821196
85.0990470353281
85.0990470429533
85.0990470488323
85.0990470505349
85.099047045107
85.0990470346733
85.0990470183606
85.0990469969111
85.099046970412
85.0990469391545
85.0990469034732
85.0990468635864
85.0990468197997
85.0990467723605
85.0990467215306
85.0990466675721
85.099046610776
85.0990465513896
85.0990464897186
85.0990464260249
85.0990463605995
85.099046293748
85.0990462257323
85.0990461568581
85.0990460874018
85.0990460176254
85.0990459478053
85.0990458782326
85.0990458091255
85.0990457407752
85.0990456733998
85.0990456072323
85.0990455425053
85.0990454794373
85.099045418232
85.0990453590784
85.0990453021659
85.0990452476544
85.0990451956895
85.0990451463731
85.0990450998215
85.0990450561367
85.0990450154059
85.0990449777019
85.0990449434757
85.0990449123055
85.0990448854718
85.0990448616067
85.0990448441735
85.0990448326338
85.0990470543184
85.0990470638062
85.0990470719698
85.0990470764082
85.0990470733814
85.0990470653196
85.099047051146
85.0990470316901
85.0990470069664
85.099046977266
85.0990469429526
85.0990469042299
85.0990468614327
85.0990468148084
85.0990467646479
85.0990467112424
85.0990466548683
85.0990465958021
85.0990465343493
85.0990464707866
85.0990464054339
85.0990463385679
85.099046270494
85.0990462014888
85.0990461318288
85.0990460618195
85.0990459917084
85.0990459217719
85.0990458522574
85.0990457834268
85.0990457154985
85.0990456487052
85.0990455832944
85.0990455194406
85.0990454573475
85.099045397219
85.099045339186
85.099045283423
85.0990452300612
85.0990451791877
85.0990451308899
85.0990450852987
85.0990450424724
85.0990450024692
85.0990449658275
85.0990449320379
85.099044902614
85.0990448758675
85.0990448560624
85.0990448426164
85.0990470710967
85.0990470826364
85.0990470932302
85.0990471005207
85.0990470999095
85.0990470942197
85.0990470821271
85.0990470646211
85.0990470416291
85.0990470134566
85.0990469804819
85.0990469429089
85.0990469010867
85.0990468552773
85.0990468058008
85.0990467529191
85.099046696967
85.0990466382209
85.099046577001
85.0990465135983
85.0990464483184
85.0990463814378
85.0990463133057
85.0990462441841
85.0990461743495
85.0990461041074
85.0990460337198
85.099045963434
85.0990458935266
85.0990458242159
85.0990457557637
85.0990456883883
85.0990456222789
85.0990455576684
85.0990454947168