/*--------------------------------*- C++ -*----------------------------------*\
  =========                 |
  \\      /  F ield         | OpenFOAM: The Open Source CFD Toolbox
   \\    /   O peration     | Website:  https://openfoam.org
    \\  /    A nd           | Version:  10
     \\/     M anipulation  |
\*---------------------------------------------------------------------------*/
FoamFile
{
    format      ascii;
    class       surfaceScalarField;
    location    "4.6";
    object      phi;
}
// * * * * * * * * * * * * * * * * * * * * * * * * * * * * * * * * * * * * * //

dimensions      [1 0 -1 0 0 0 0];

internalField   nonuniform List<scalar> 
4900
(
-6.33939858557714e-12
6.52279759506063e-12
-7.79177216540586e-12
1.7325176110141e-12
-6.26629770633201e-12
-1.22226467980519e-12
-4.2502331690406e-12
-1.7147009231578e-12
-2.70646973660664e-12
-1.2468766322631e-12
-1.70292861688747e-12
-7.09880832126712e-13
-1.08017581013328e-12
-3.31644631687415e-13
-6.95103150684376e-13
-9.63449187975227e-14
-4.4940812943166e-13
4.07849105296778e-14
-2.85772830934737e-13
1.20824060078444e-13
-1.71059834235195e-13
1.68011441698918e-13
-8.66341506384046e-14
1.96834778446832e-13
-2.19413682913089e-14
2.15319231053794e-13
2.91868597506171e-14
2.27779638557376e-13
7.04588725095185e-14
2.3661417965718e-13
1.0422625943082e-13
2.43131093581652e-13
1.32059393772658e-13
2.48084364369523e-13
1.55072362007819e-13
2.51913467950896e-13
1.74112061112183e-13
2.54884415486076e-13
1.89820095017491e-13
2.57202699074306e-13
2.02737541191174e-13
2.58979066956154e-13
2.13317897558176e-13
2.60305486641698e-13
2.21967186072342e-13
2.61241765893192e-13
2.29040289694139e-13
2.61842820032917e-13
2.34878060396464e-13
2.62134807401185e-13
2.39815030899913e-13
2.62125340441083e-13
2.44185041097045e-13
2.61826003025893e-13
2.48324929325534e-13
2.61233715527866e-13
2.52604166128851e-13
2.60325424670657e-13
2.57410473097445e-13
2.59081423355523e-13
2.63209765179339e-13
2.57433380528019e-13
2.70538991397583e-13
2.55308418709585e-13
2.80040790386543e-13
2.5261196229422e-13
2.92566576248989e-13
2.49137051607112e-13
3.09267583511829e-13
2.44600243509368e-13
3.31768815349068e-13
2.38538746407059e-13
3.62473703593459e-13
2.30200568719934e-13
4.05159861235512e-13
2.18233785439872e-13
4.66049709893218e-13
2.00224274884923e-13
5.55796668583434e-13
1.71754964993377e-13
6.93089724803925e-13
1.24793197923915e-13
9.11086368199028e-13
4.4852423879312e-14
1.26714880006131e-12
-9.22510926952912e-14
1.86046268157657e-12
-3.28149821730964e-13
2.83685422643484e-12
-7.08875050346497e-13
4.36567737700034e-12
-1.25678085136922e-12
6.39670813116464e-12
-1.75115955865915e-12
7.95568830812258e-12
-1.26801789941972e-12
6.45734878752626e-12
1.78963235107897e-12
6.65779753442045e-12
-8.04034504538159e-12
1.48177798997252e-11
-1.24243919624266e-11
6.47638625209677e-12
-1.07974292937993e-11
-2.46984947830199e-12
-7.85381244362486e-12
-4.28370263264773e-12
-5.35166668296063e-12
-3.38172124598366e-12
-3.62578842056854e-12
-2.07394271322143e-12
-2.49636279669654e-12
-1.10334455838506e-12
-1.75818814370379e-12
-4.80160973362733e-13
-1.2602697663251e-12
-1.05665967505534e-13
-9.09199180542778e-13
1.18754270812716e-13
-6.49976988756493e-13
2.55716837402849e-13
-4.50609105356882e-13
3.42649849190951e-13
-2.92233325162291e-13
4.0062586309174e-13
-1.63356953031456e-13
4.41242386848468e-13
-5.66770848752542e-14
4.71014967708288e-13
3.26814327809471e-14
4.93627781955414e-13
1.08140081196138e-13
5.1125790409086e-13
1.72229674704771e-13
5.2521950228667e-13
2.26897473186831e-13
5.36362187322791e-13
2.73715480835655e-13
5.45268017704453e-13
3.13994753673175e-13
5.52321148566294e-13
3.4886725349161e-13
5.57798502503619e-13
3.79342576704958e-13
5.61897651473387e-13
4.06335515109802e-13
5.64772978816556e-13
4.3072324139214e-13
5.665024186073e-13
4.53361823144045e-13
5.67117143624702e-13
4.75105592424023e-13
5.66643220053293e-13
4.96831736515071e-13
5.65054326493544e-13
5.19471752809658e-13
5.62285753098721e-13
5.44034795195415e-13
5.58237927624979e-13
5.71671390351338e-13
5.52712225213288e-13
6.03712097614695e-13
5.45456010022354e-13
6.41738956292602e-13
5.36135388165596e-13
6.87731871308548e-13
5.24150030743815e-13
7.44303217040612e-13
5.08603418954193e-13
8.14966992088526e-13
4.88147582216929e-13
9.0471191052374e-13
4.60588555362725e-13
1.02094964170919e-12
4.22180255991799e-13
1.17530244333278e-12
3.66335161864336e-13
1.38680662409347e-12
2.81239489096512e-13
1.68762527966701e-12
1.45741154565765e-13
2.13293744150742e-12
-7.76627519328928e-14
2.81657161735656e-12
-4.51716583558103e-13
3.89122525926992e-12
-1.07654295901246e-12
5.56789047731621e-12
-2.05547318697695e-12
8.04453507433635e-12
-3.39613873364891e-12
1.10200581905258e-11
-4.37759139144203e-12
1.27154778410313e-11
-2.60147526106526e-12
8.26555789766389e-12
6.58871653992682e-12
1.51465333143795e-11
-4.98979538011836e-12
2.00747932785423e-11
-1.02480752011064e-11
1.20935756332064e-11
-9.85121170761302e-12
-2.50024939784024e-12
-7.82796983114256e-12
-5.94978574030735e-12
-5.80432544701167e-12
-5.05848183650705e-12
-4.26156784366457e-12
-3.27739329686044e-12
-3.16231058336493e-12
-1.86854955721691e-12
-2.38446185744458e-12
-9.2778276059034e-13
-1.82135773168085e-12
-3.41495414333282e-13
-1.39975081516437e-12
2.20599655109536e-14
-1.07339542297966e-12
2.52344268734161e-13
-8.13386084940012e-13
4.04006269756644e-13
-6.01379780615356e-13
5.08582763203778e-13
-4.25416906216088e-13
5.83969588325978e-13
-2.77387630957997e-13
6.40470201634719e-13
-1.5158508010719e-13
6.84125902662615e-13
-4.38153095572733e-14
7.18603084112662e-13
4.91165936213178e-14
7.46201765442949e-13
1.29732074742288e-13
7.68446372775078e-13
2.00102149280318e-13
7.86372242078133e-13
2.61979596059323e-13
8.00692979738876e-13
3.16891284363469e-13
8.11918849874833e-13
3.66210162090806e-13
8.20414693639899e-13
4.11196217706265e-13
8.26452714203334e-13
4.53056598391156e-13
8.30177434003292e-13
4.92966273623558e-13
8.31654277140011e-13
5.32103076928682e-13
8.3091895423386e-13
5.71676904858866e-13
8.27913491972612e-13
6.12967095741566e-13
8.22513869848915e-13
6.57362600052068e-13
8.14511104974074e-13
7.06422197349898e-13
8.03546339593163e-13
7.61929069949021e-13
7.89142635539964e-13
8.25995795775554e-13
7.70648755584512e-13
9.01199499432602e-13
7.47004184305844e-13
9.90832162924901e-13
7.16616912055996e-13
1.09917608620684e-12
6.77163944383254e-13
1.23206569526707e-12
6.24931534838366e-13
1.39770553148047e-12
5.53831341683504e-13
1.60817786358955e-12
4.53436055233514e-13
1.88195573480337e-12
3.05564037494257e-13
2.24810972793592e-12
7.8490561599758e-14
2.75312921303126e-12
-2.82665943455432e-13
3.47091227729937e-12
-8.67892088612153e-13
4.51000662298145e-12
-1.81145145737691e-12
5.9988567259319e-12
-3.23538160477276e-12
7.99337307009047e-12
-5.07283019637253e-12
1.00478026618328e-11
-6.09996172137985e-12
1.05304346518542e-11
-2.73868531259958e-12
5.23338631805755e-12
1.22148718733158e-11
2.05835070548185e-11
-2.4466771402717e-12
2.27848104734959e-11
-6.23529844818977e-12
1.62226004571176e-11
-6.92890021336683e-12
-1.46860844974587e-12
-6.22934382867791e-12
-6.32429862617642e-12
-5.14352134361582e-12
-5.8315958806038e-12
-4.12428582145473e-12
-3.99279635745679e-12
-3.28533621082344e-12
-2.4095486637574e-12
-2.621339460307e-12
-1.29779382069665e-12
-2.09818556007783e-12
-5.73498615251273e-13
-1.68159222667772e-12
-1.05540444484569e-13
-1.34497041139396e-12
2.02985895206105e-13
-1.06883178856613e-12
4.13678791942685e-13
-8.39113196577661e-13
5.63397901031982e-13
-6.45680830389264e-13
6.73892373146144e-13
-4.81112638097961e-13
7.58126500693119e-13
-3.39876398720148e-13
8.23995171752179e-13
-2.1773206984488e-13
8.76437961742354e-13
-1.11362294403324e-13
9.18668602223897e-13
-1.80791348267516e-14
9.52843619899646e-13
6.4343772796139e-14
9.80462635867593e-13
1.3782025155439e-13
1.00256382833325e-12
2.04024394630647e-13
1.0199027598501e-12
2.64466439049538e-13
1.0330220424187e-12
3.20553435921532e-13
1.04230149504928e-12
3.73623373846693e-13
1.04796778723847e-12
4.24977925772669e-13
1.0501241424951e-12
4.75925512739401e-13
1.04881192054255e-12
5.27809399622929e-13
1.04393828474236e-12
5.82047884825195e-13
1.03531437131745e-12
6.40177284560989e-13
1.02261279296118e-12
7.0390592978874e-13
1.00531197917186e-12
7.7517914772405e-13
9.82697949237037e-13
8.56281886035947e-13
9.53791225800615e-13
9.49954217599021e-13
9.17080208608801e-13
1.05959350106994e-12
8.70332893614515e-13
1.18951047685353e-12
8.10327792259228e-13
1.34533383434927e-12
7.32061369271909e-13
1.5345394078337e-12
6.27625072272729e-13
1.76731424387255e-12
4.83915895470937e-13
2.05774321270012e-12
2.78881815592062e-13
2.42535162187233e-12
-2.46049702333945e-14
2.89680093574274e-12
-4.88495604998123e-13
3.506790856054e-12
-1.21061306396288e-12
4.29070888501699e-12
-2.32536218022924e-12
5.25909435789087e-12
-3.92869854710255e-12
6.31387195978785e-12
-5.84309373549136e-12
7.03274660284803e-12
-6.51912691564651e-12
6.41841793619001e-12
-1.81093592965789e-12
2.62003630266985e-12
1.63098940539378e-11
2.33831037364626e-11
-1.03459466462735e-12
2.40621239219277e-11
-3.02738227844702e-12
1.85171827430367e-11
-4.2884135079737e-12
8.28228341996554e-14
-4.54662574337734e-12
-5.7903050995257e-12
-4.23544790678616e-12
-5.87965378824523e-12
-3.69829648125473e-12
-4.27582316286073e-12
-3.13386407478535e-12
-2.72564844468591e-12
-2.6180667966388e-12
-1.56896578571608e-12
-2.17289492167622e-12
-7.76558935378072e-13
-1.79674054223296e-12
-2.41438523084831e-13
-1.4808031296047e-12
1.2582173207564e-13
-1.21495463195669e-12
3.85336803926169e-13
-9.89978120211961e-13
5.74786040192074e-13
-7.98228440203081e-13
7.17430914151004e-13
-6.33577668949495e-13
8.27714146251423e-13
-4.91159342457362e-13
9.14764685566914e-13
-3.67088908124946e-13
9.84493057135855e-13
-2.58228832324782e-13
1.04085401168027e-12
-1.61985954166774e-13
1.08655133115806e-12
-7.61750098778868e-14
1.12349727052625e-12
1.09329974702725e-15
1.15303704226852e-12
7.1489814520829e-14
1.17615013692569e-12
1.36527314502259e-13
1.19354984550868e-12
1.97618320350855e-13
1.20572114818201e-12
2.56110652102374e-13
1.21296764530211e-12
3.13311469095079e-13
1.21543459603917e-12
3.70537489483888e-13
1.21316529780205e-12
4.29136520095724e-13
1.20603608788505e-12
4.90530380575816e-13
1.19379390483337e-12
5.56256103083798e-13
1.17599493471026e-12
6.28012735044918e-13
1.15196547899776e-12
7.07717570985913e-13
1.12077256871014e-12
7.97600865081753e-13
1.08113402769101e-12
9.00305826150713e-13
1.03112896745568e-12
1.01901771697552e-12
9.67998453561165e-13
1.15767082316682e-12
8.87784222967772e-13
1.32117696667031e-12
7.8452990953507e-13
1.51567798102771e-12
6.49118950636712e-13
1.74879109859139e-12
4.67004691919472e-13
2.02965028413444e-12
2.14643806030293e-13
2.3682495694285e-12
-1.4590972640466e-13
2.773158883432e-12
-6.75111602414463e-13
3.24585036027609e-12
-1.46348888728682e-12
3.76450252065359e-12
-2.62165098384236e-12
4.2566801646917e-12
-4.19379995804668e-12
4.53623151829757e-12
-5.88667670364324e-12
4.28561841573806e-12
-6.01798665583047e-12
3.08488673029611e-12
-3.47018661037226e-13
1.10557661467169e-12
1.85368349418971e-11
2.46332601751873e-11
-3.29428963267226e-13
2.46025091328972e-11
-1.20985738683072e-12
1.96489334151853e-11
-2.61316906438847e-12
1.72105209254655e-12
-3.3280336731044e-12
-4.85520786692545e-12
-3.46160245038496e-12
-5.53775654136199e-12
-3.24298872989963e-12
-4.29445696644462e-12
-2.88579321864944e-12
-2.8881324923925e-12
-2.49871365631424e-12
-1.76458227364026e-12
-2.13279883413703e-12
-9.5312865170053e-13
-1.80607435432937e-12
-3.80353660906808e-13
-1.521765930905e-12
2.80816871850722e-14
-1.27682006044766e-12
3.25869141434082e-13
-1.06612941998143e-12
5.48559648441425e-13
-8.84440353712278e-13
7.19224992586068e-13
-7.27030146931552e-13
8.52812277938266e-13
-5.89869565815457e-13
9.59127835021389e-13
-4.69593451906533e-13
1.04473898038011e-12
-3.63385014556996e-13
1.11414542690333e-12
-2.6886547980697e-13
1.17049505922927e-12
-1.83990819824787e-13
1.21603881047893e-12
-1.06979179085947e-13
1.25239487843551e-12
-3.6239865599521e-14
1.2807393811165e-12
2.96844766953686e-14
1.30193128883425e-12
9.21492597143572e-14
1.31656172396835e-12
1.5245536253712e-13
1.3250000370261e-12
2.11858013161834e-13
1.32743940731403e-12
2.71631646411471e-13
1.32391466952301e-12
3.33070928106539e-13
1.31428179134467e-12
3.97543854396122e-13
1.2982236101705e-12
4.66519061846674e-13
1.27519568361904e-12
5.41612027342409e-13
1.24438520408787e-12
6.24624942489366e-13
1.20467240708708e-12
7.17639262382111e-13
1.15450542743535e-12
8.23070154743873e-13
1.09163206549839e-12
9.43757224220773e-13
1.01288239734559e-12
1.08309644255973e-12
9.13750438289719e-13
1.24512030083006e-12
7.87664389830474e-13
1.4345339294734e-12
6.24850726250401e-13
1.6565085125664e-12
4.10322422360818e-13
1.9159895324067e-12
1.20783428337374e-13
2.21575724983222e-12
-2.79509855473361e-13
2.55210048099697e-12
-8.44454698795738e-13
2.90635688519269e-12
-1.64945750409424e-12
3.22672105340938e-12
-2.77157128826613e-12
3.40661286529031e-12
-4.19925578269017e-12
3.24260230579652e-12
-5.54053597489038e-12
2.52848039808542e-12
-5.10878635927283e-12
1.16680841476909e-12
1.22108496073725e-12
3.1886232923985e-13
1.95771660156481e-11
2.50608876900406e-11
2.96666161005216e-14
2.47396370782124e-11
-4.46850982502741e-13
2.03126913329372e-11
-1.7555218518467e-12
3.19785365024104e-12
-2.57487934668852e-12
-3.88041552536433e-12
-2.89112114234602e-12
-5.07588409435595e-12
-2.84597185717744e-12
-4.20087694383708e-12
-2.6249320449421e-12
-2.97475374660972e-12
-2.33577084282206e-12
-1.92190959176019e-12
-2.03776075077124e-12
-1.12094740830101e-12
-1.75776251640468e-12
-5.31354361934522e-13
-1.50585039910283e-12
-9.58305303883784e-14
-1.2837490365844e-12
2.30847671551168e-13
-1.08952824221377e-12
4.80526767196073e-13
-9.19989534617304e-13
6.74983265762891e-13
-7.71729198279317e-13
8.28946743858255e-13
-6.41573138025475e-13
9.52444042983584e-13
-5.26712234882239e-13
1.05240622020584e-12
-4.24696839495248e-13
1.13369210238385e-12
-3.33404435352492e-13
1.1997836704784e-12
-2.50968382666242e-13
1.25319156074541e-12
-1.75737291523818e-13
1.29576037592114e-12
-1.06223863152129e-13
1.32883564816799e-12
-4.10536392262064e-14
1.35340098261762e-12
2.10579945754834e-14
1.37014088365114e-12
8.13463833180142e-14
1.37948543935277e-12
1.41009805977899e-13
1.38166622350505e-12
2.01255374506318e-13
1.37671970837907e-12
2.63312750743549e-13
1.36447953024502e-12
3.28479434235395e-13
1.34456956528433e-12
3.9813632440755e-13
1.31636096880481e-12
4.73792943696413e-13
1.27892083426313e-12
5.57113708476966e-13
1.23097380304148e-12
6.49993148798836e-13
1.17074624501864e-12
7.54580124035e-13
1.09573364593765e-12
8.73333065492463e-13
1.00246735783772e-12
1.0090739323005e-12
8.86084146330678e-13
1.16496472885415e-12
7.39686978000404e-13
1.3443611824993e-12
5.53318366844575e-13
1.55035128880568e-12
3.12275461286495e-13
1.78466345317082e-12
-5.36623907505797e-15
2.04522848553958e-12
-4.31525422887313e-13
2.32135497025532e-12
-1.01142854085815e-12
2.58529621397257e-12
-1.80330318071139e-12
2.77658964351062e-12
-2.85118486957683e-12
2.7888558186996e-12
-4.09685531891278e-12
2.44512826766849e-12
-5.07610745887956e-12
1.6247326984585e-12
-4.15704732108222e-12
3.46706712716182e-13
2.63945061335785e-12
-8.39982022674335e-14
2.01367317889848e-11
2.50442935194423e-11
1.97706992691581e-13
2.46600123917246e-11
-2.40628033591993e-13
2.08721920803862e-11
-1.36013346735304e-12
4.42050508446738e-12
-2.1169627924104e-12
-3.03022792862011e-12
-2.4731016894762e-12
-4.63365243059876e-12
-2.51247959835579e-12
-4.08057398076936e-12
-2.37784067420622e-12
-3.03168933685532e-12
-2.16114209369912e-12
-2.06279912461971e-12
-1.91871161780449e-12
-1.28875760947622e-12
-1.67974136410858e-12
-6.96591949699553e-13
-1.45769600937309e-12
-2.44931323362505e-13
-1.25736511862159e-12
1.02688485534966e-13
-1.0791871058991e-12
3.73733378678707e-13
-9.2165988732786e-13
5.88028898849926e-13
-7.82552630655998e-13
7.59574162492631e-13
-6.59487688365103e-13
8.98247555028311e-13
-5.50200008506984e-13
1.01109470126705e-12
-4.52613280898824e-13
1.10316613233078e-12
-3.64862114200561e-13
1.17816149292668e-12
-2.85268091252107e-13
1.23878376314059e-12
-2.12318019696767e-13
1.28705295555932e-12
-1.44628528495784e-13
1.32445005632207e-12
-8.09141249825223e-14
1.35206720815261e-12
-1.99599263559725e-14
1.37066379210256e-12
3.9396681445017e-14
1.38073218713786e-12
9.82950812300055e-14
1.38252921257875e-12
1.57879270786199e-13
1.37609634346921e-12
2.1931425939041e-13
1.36124665868174e-12
2.83822008940866e-13
1.33755547480662e-12
3.52695299772665e-13
1.30432229803912e-12
4.27331516860584e-13
1.26051792325825e-12
5.09256246920446e-13
1.2047374038561e-12
6.00166900522984e-13
1.13504352962094e-12
7.01948347311701e-13
1.04874487889636e-12
8.16682735147943e-13
9.42184828253226e-13
9.46633575815245e-13
8.10321743300123e-13
1.09415961112841e-12
6.46173988377706e-13
1.26142978655656e-12
4.39975679387793e-13
1.44982749086765e-12
1.77816494137017e-13
1.65869714742694e-12
-1.60188321474757e-13
1.88289377103402e-12
-6.01456015294689e-13
2.10833643793079e-12
-1.18225038979634e-12
2.30493654192937e-12
-1.94471690233411e-12
2.41520122068311e-12
-2.90529317293507e-12
2.34832192039455e-12
-3.97188510776836e-12
1.96891961154498e-12
-4.63433146789994e-12
1.2121832801053e-12
-3.3298591401898e-12
1.19452344391903e-13
3.80963414643596e-12
-2.66994821589952e-13
2.05914011089818e-11
2.48078492095108e-11
2.4089417512589e-13
2.44850483740292e-11
-2.45349971277563e-13
2.14122262438989e-11
-1.16235995162521e-12
5.37621496935398e-12
-1.80889173370935e-12
-2.35083645925811e-12
-2.14720656427383e-12
-4.26669983323382e-12
-2.22613997060945e-12
-3.97619638376721e-12
-2.14790849431188e-12
-3.08650566066825e-12
-1.98580707048737e-12
-2.20266627044435e-12
-1.78893798741874e-12
-1.4641425767081e-12
-1.58558540737222e-12
-8.79065881225742e-13
-1.39052947687948e-12
-4.19708799810068e-13
-1.21044374581165e-12
-5.77616793022751e-14
-1.04749103954933e-12
2.2972334048969e-13
-9.01532050871044e-13
4.60274226475558e-13
-7.71341257921274e-13
6.46809837951485e-13
-6.55263288595923e-13
7.98782958723088e-13
-5.51533875747793e-13
9.23137037124199e-13
-4.58436278533405e-13
1.02497370752544e-12
-3.74357317387578e-13
1.10810440149501e-12
-2.97808957231795e-13
1.17536257194885e-12
-2.27412754381508e-13
1.22888805450898e-12
-1.61896659724985e-13
1.27027299786759e-12
-1.0005968695078e-13
1.30069151923959e-12
-4.07630860174608e-14
1.32096907860905e-12
1.70935072380095e-14
1.33164598412477e-12
7.45841952342193e-14
1.33300803327408e-12
1.32792870550264e-13
1.32509531412479e-12
1.92815776638616e-13
1.3077091158633e-12
2.55803746696048e-13
1.2803784451083e-12
3.22960426851729e-13
1.24234866368133e-12
3.95571104871987e-13
1.19251730065273e-12
4.75022541722157e-13
1.12937629105021e-12
5.62824168229283e-13
1.05087349884364e-12
6.60597522991184e-13
9.54205126148932e-13
7.70067630418064e-13
8.35618817786391e-13
8.92985513648071e-13
6.90046679782999e-13
1.03098858327734e-12
5.10626646765056e-13
1.18523817153728e-12
2.8806304130938e-13
1.35575959716181e-12
9.57959689998376e-15
1.54018298918287e-12
-3.42327240691698e-13
1.73151008929998e-12
-7.90452826629149e-13
1.91442160761006e-12
-1.36274161335705e-12
2.05987111404622e-12
-2.087587359738e-12
2.1178860343341e-12
-2.96040767804272e-12
2.01629944065418e-12
-3.86653967806224e-12
1.65931699235947e-12
-4.27109352443528e-12
1.01475753008442e-12
-2.67364500036667e-12
1.24068675858252e-13
4.71627481210402e-12
-3.10112871448924e-13
2.10351563818302e-11
2.44922628899882e-11
2.09411217010091e-13
2.42941327789939e-11
-2.94745701599796e-13
2.19120802833302e-11
-1.03225431959948e-12
6.09909767918849e-12
-1.57214612961186e-12
-1.82764125940639e-12
-1.87631356412159e-12
-3.98070519848482e-12
-1.97347805044649e-12
-3.89861071986226e-12
-1.93366132541997e-12
-3.14686998576032e-12
-1.81365542705536e-12
-2.34379069810334e-12
-1.6545179845285e-12
-1.64478989577437e-12
-1.48220403439404e-12
-1.07327310050134e-12
-1.31160327282886e-12
-6.12655983595075e-13
-1.1504338399274e-12
-2.41816127284028e-13
-1.00206178763792e-12
5.78514679812342e-14
-8.6740674978674e-13
3.01443579054769e-13
-7.4607646265135e-13
5.00579516912687e-13
-6.37043651375812e-13
6.64085893402114e-13
-5.39002897768813e-13
7.98636468217145e-13
-4.50577071593281e-13
9.09266397272178e-13
-3.7039318421446e-13
9.99800158991166e-13
-2.97147482831841e-13
1.0731455674726e-12
-2.29600534211675e-13
1.13151706979291e-12
-1.6658690310873e-13
1.17658562917653e-12
-1.06993878356139e-13
1.20958800142686e-12
-4.97610619146698e-14
1.23140600518517e-12
6.14809686557189e-15
1.24261335561656e-12
6.17411962078416e-14
1.24352638059123e-12
1.18041084006014e-13
1.23417916144039e-12
1.76075680385722e-13
1.21436795847269e-12
2.36920010069284e-13
1.18358239316534e-12
3.01687196222165e-13
1.14102942337338e-12
3.71555738327666e-13
1.08554809463279e-12
4.47769752921918e-13
1.01556392812775e-12
5.31657424796992e-13
9.28947622413574e-13
6.2459112313303e-13
8.22850127827565e-13
7.27960186919279e-13
6.93508288668457e-13
8.43055690383594e-13
5.35950668821269e-13
9.70888344451765e-13
3.43596337630095e-13
1.11179189628603e-12
1.0781626411579e-13
1.26474691883989e-12
-1.82825759133122e-13
1.42620118738086e-12
-5.43326430337461e-13
1.58816183182208e-12
-9.92065907249419e-13
1.7353175946065e-12
-1.54969889292965e-12
1.84114640494292e-12
-2.23342646838016e-12
1.86407722439031e-12
-3.02360007476478e-12
1.74846853852604e-12
-3.79126621244097e-12
1.42983426533385e-12
-3.99189970925508e-12
8.93189801977778e-13
-2.17362764276903e-12
1.81869377330119e-13
5.3931799817989e-12
-2.73474407628156e-13
2.14517795996476e-11
2.41854996060639e-11
1.46329560869901e-13
2.4124529073348e-11
-3.31925871399217e-13
2.2336931442578e-11
-9.23588857996407e-13
6.63196108704267e-12
-1.37399865185442e-12
-1.43442230892136e-12
-1.64267483238051e-12
-3.76815622684467e-12
-1.74721260537572e-12
-3.84999943674289e-12
-1.73410155462588e-12
-3.21594027412809e-12
-1.64688205839007e-12
-2.48701723041581e-12
-1.5191267708933e-12
-1.82864669215507e-12
-1.37391183266979e-12
-1.27479302074979e-12
-1.22552011423943e-12
-8.17686081051145e-13
-1.08209953677938e-12
-4.42326843946277e-13
-9.47793432056022e-13
-1.34090774609203e-13
-8.24299476757744e-13
1.19695048925759e-13
-7.1189847075433e-13
3.29250962314101e-13
-6.10094572100157e-13
5.02638306101974e-13
-5.17987364638417e-13
6.4613599382495e-13
-4.34505660787427e-13
7.64615239033341e-13
-3.58511840710261e-13
8.61842898215333e-13
-2.88874323866891e-13
9.40738378053876e-13
-2.24494907975503e-13
1.00355904652057e-12
-1.64313305801364e-13
1.05201858264869e-12
-1.07309622731963e-13
1.08740438035283e-12
-5.25002308208151e-14
1.11063754639264e-12
1.0792438116212e-15
1.12232055219602e-12
5.43744751500278e-14
1.12279031326854e-12
1.08337640298989e-13
1.11208244150166e-12
1.63930996062966e-13
1.08998405307675e-12
2.22149478776237e-13
1.05595928138177e-12
2.84017903813391e-13
1.00918461230136e-12
3.5060292527078e-13
9.48464219210713e-13
4.23010809784718e-13
8.72182819567958e-13
5.02392398514084e-13
7.78173008488501e-13
5.89889888122809e-13
6.63593325659696e-13
6.86584233472031e-13
5.24746587381249e-13
7.93363543580014e-13
3.56850326682917e-13
9.10708477375289e-13
1.53729299804412e-13
1.0382967968962e-12
-9.24588308609163e-14
1.17434583093939e-12
-3.91710740180861e-13
1.31456028988704e-12
-7.5654839443535e-13
1.45057064379899e-12
-1.20132069060289e-12
1.56779480286715e-12
-1.74052453789043e-12
1.64277666187488e-12
-2.38254302595467e-12
1.64174317446111e-12
-3.09745665845933e-12
1.52227505158838e-12
-3.74758327420503e-12
1.24256761712101e-12
-3.78853348143953e-12
7.95808163541972e-13
-1.80283069341196e-12
2.29110892327046e-13
5.88353318371227e-12
-2.04650390887437e-13
2.18070241525696e-11
2.39243006170772e-11
8.0445002241555e-14
2.39895357304112e-11
-3.47077541008264e-13
2.26765554897318e-11
-8.24685889013808e-13
7.02110717901981e-12
-1.20214831239985e-12
-1.14102563275967e-12
-1.43793939940578e-12
-3.61350696253336e-12
-1.54348006247287e-12
-3.82420803258346e-12
-1.5487712709065e-12
-3.28974183707722e-12
-1.48702704574506e-12
-2.62752715271052e-12
-1.3853101962642e-12
-2.00901899825015e-12
-1.26369325598792e-12
-1.47514534394332e-12
-1.13541945645871e-12
-1.02494423325021e-12
-1.00862446167404e-12
-6.48492388495626e-13
-8.8787636601674e-13
-3.34699753579399e-13
-7.75411358284752e-13
-7.31993415272251e-14
-6.72020196755294e-13
1.44803810805986e-13
-5.77642555768907e-13
3.26532664786678e-13
-4.91730311751262e-13
4.77789814165354e-13
-4.13485381028701e-13
6.03202508167994e-13
-3.41985174130897e-13
7.06423251744321e-13
-2.76265695142774e-13
7.90334838753336e-13
-2.15361479857601e-13
8.57202687158094e-13
-1.58324038253731e-13
9.08762156388762e-13
-1.04223964906893e-13
9.46329278913234e-13
-5.21552511789293e-14
9.7085204984873e-13
-1.22931567770716e-15
9.82959212254545e-13
4.94342063104856e-14
9.82997334596167e-13
1.00713705954732e-13
9.710131357208e-13
1.53505853017289e-13
9.46774542176588e-13
2.08719439476689e-13
9.0974206467669e-13
2.67289888327479e-13
8.59063902014412e-13
3.30175777467422e-13
7.93528843508368e-13
3.98349354053204e-13
7.11505860344572e-13
4.72790705914175e-13
6.10826080535989e-13
5.54431092235965e-13
4.88695693188203e-13
6.44076735219506e-13
3.41546194086553e-13
7.42270048969755e-13
1.64854805680661e-13
8.49060297693463e-13
-4.70660554518915e-14
9.63630839833451e-13
-3.01210972820305e-13
1.08367949737701e-12
-6.06117927623752e-13
1.20452089993723e-12
-9.71972882650158e-13
1.31785586953017e-12
-1.4095680215797e-12
1.41024494275373e-12
-1.92833470310112e-12
1.46138977875377e-12
-2.52988128905472e-12
1.44426854182082e-12
-3.17765476966073e-12
1.3266774893949e-12
-3.72882230876022e-12
1.08249249713217e-12
-3.64492297516584e-12
7.0833953232073e-13
-1.53105073189062e-12
2.53324716193775e-13
6.23387691280373e-12
-1.34059257485381e-13
2.20887106675591e-11
2.37191088477409e-11
2.60288747205487e-14
2.38869017858222e-11
-3.44172302417963e-13
2.29360429271318e-11
-7.33562704288027e-13
7.303031466215e-12
-1.05110593976358e-12
-9.24395196252373e-13
-1.25716023966654e-12
-3.50405421892381e-12
-1.35957847380476e-12
-3.81612632628955e-12
-1.37710616784972e-12
-3.36539537227823e-12
-1.33496741211833e-12
-2.76225547436152e-12
-1.25473110754578e-12
-2.18159253643771e-12
-1.15356032393104e-12
-1.66864760075965e-12
-1.04341781021372e-12
-1.22760428884132e-12
-9.32114283905368e-13
-8.52645677116923e-13
-8.24363526639033e-13
-5.35741431055584e-13
-7.22731260751241e-13
-2.68644012257751e-13
-6.28377042156052e-13
-4.39435952876988e-14
-5.41581971275076e-13
1.44717408946186e-13
-4.62090421660679e-13
3.02616333751983e-13
-3.89341003644585e-13
4.34081539582222e-13
-3.22609766901768e-13
5.42612390589277e-13
-2.61090388760171e-13
6.3101451407375e-13
-2.03941374497793e-13
7.01527862002324e-13
-1.50325575800754e-13
7.55895489038284e-13
-9.94032161731829e-14
7.95441105937282e-13
-5.03504054441926e-14
8.21130886546496e-13
-2.35502082960119e-15
8.33614703637436e-13
4.53949057771298e-14
8.33241005638137e-13
9.37064266234807e-14
8.20068661258341e-13
1.4340041080848e-13
7.93852843950427e-13
1.95306310421911e-13
7.54051830853745e-13
2.50266043823944e-13
6.99801242058031e-13
3.09130532253578e-13
6.29887316437885e-13
3.72743408928036e-13
5.42685119850337e-13
4.41929924967842e-13
4.36049580288051e-13
5.17428752842957e-13
3.07272385621381e-13
5.99804827585927e-13
1.52962004221131e-13
6.89313119795098e-13
-3.11000804618132e-14
7.8566974760143e-13
-2.50067315800605e-13
8.87702942334812e-13
-5.10068585809795e-13
9.92806845008021e-13
-8.18236766239827e-13
1.09617764559617e-12
-1.18261324513465e-12
1.18989949010669e-12
-1.61094473271125e-12
1.26189292765617e-12
-2.10858959695819e-12
1.29488893542257e-12
-2.67207074665722e-12
1.26751425424612e-12
-3.26085719700648e-12
1.15539334814725e-12
-3.72925129090541e-12
9.42929874250271e-13
-3.5477241691118e-12
6.28012841306549e-13
-1.33506980378574e-12
2.58119938611995e-13
6.4803485396481e-12
-7.58796085683786e-14
2.22992214784079e-11
2.3562432401767e-11
-1.29369407042172e-14
2.38114841130167e-11
-3.29029400769676e-13
2.31313409701142e-11
-6.4961485080358e-13
7.50895307679137e-12
-9.17186716511377e-13
-7.63746866157413e-13
-1.09645845171823e-12
-3.42666437451193e-12
-1.19305234702717e-12
-3.81867073331855e-12
-1.21820404315837e-12
-3.43795218705119e-12
-1.19094929935068e-12
-2.88648768903162e-12
-1.12832197692562e-12
-2.34087381011968e-12
-1.04477247173088e-12
-1.84879982920338e-12
-9.50885723427567e-13
-1.41824058643417e-12
-8.53933743568216e-13
-1.04663977999592e-12
-7.5856252251458e-13
-7.28554679550775e-13
-6.67492977564909e-13
-4.57635208894486e-13
-5.8212949585446e-13
-2.27767206916954e-13
-5.03005571220068e-13
-3.34514787001551e-14
-4.30103891805143e-13
1.3004990821682e-13
-3.63064411687689e-13
2.66730282384029e-13
-3.01335258283279e-13
3.79905342220265e-13
-2.44255149008685e-13
4.72276450016863e-13
-1.91105977643751e-13
5.46035676585031e-13
-1.411528945918e-13
6.02914006416345e-13
-9.36481801446847e-14
6.44231062251676e-13
-4.78495347162596e-14
6.70961174651266e-13
-3.01905943705771e-15
6.83767365884642e-13
4.15793436618653e-14
6.8300158197445e-13
8.66825502277365e-14
6.68729550023696e-13
1.33033290123465e-13
6.40700410721038e-13
1.81380345646943e-13
5.9837390128086e-13
2.32475010020635e-13
5.40882177356759e-13
2.87065704412596e-13
4.67020710772534e-13
3.45872783687076e-13
3.75191253075582e-13
4.09577074933025e-13
2.63294236576234e-13
4.78745259125948e-13
1.28733436993781e-13
5.53744450432856e-13
-3.16792724215211e-14
6.34595419939981e-13
-2.21822066535489e-13
7.20769842453088e-13
-4.46305128008027e-13
8.10864265135203e-13
-7.10403523330381e-13
9.02140129806322e-13
-1.01994604038529e-12
9.89888834493634e-13
-1.38105871024639e-12
1.06678021286842e-12
-1.79893791733115e-12
1.12218034187242e-12
-2.27573616892087e-12
1.14161483904911e-12
-2.8042522128474e-12
1.10833806271715e-12
-3.34183479145245e-12
1.0039944327229e-12
-3.74140275132573e-12