/*--------------------------------*- C++ -*----------------------------------*\
  =========                 |
  \\      /  F ield         | OpenFOAM: The Open Source CFD Toolbox
   \\    /   O peration     | Website:  https://openfoam.org
    \\  /    A nd           | Version:  10
     \\/     M anipulation  |
\*---------------------------------------------------------------------------*/
FoamFile
{
    format      ascii;
    class       volScalarField;
    location    "4.6";
    object      rho;
}
// * * * * * * * * * * * * * * * * * * * * * * * * * * * * * * * * * * * * * //

dimensions      [1 -3 0 0 0 0 0];

internalField   nonuniform List<scalar> 
2500
(
1.14350646498159
1.14356133898704
1.1436293993723
1.14366881851047
1.14368841587349
1.14369766008976
1.14370185707892
1.14370368158983
1.14370443627954
1.14370472970826
1.14370484303842
1.1437048850437
1.14370490055249
1.14370490871434
1.14370491400597
1.14370491886487
1.14370492139094
1.14370492434008
1.14370492762798
1.14370492995831
1.14370493200175
1.14370493383742
1.14370493538013
1.14370493629847
1.14370493725305
1.14370493815003
1.14370493849475
1.14370493872415
1.14370493876677
1.14370493846794
1.14370493793269
1.14370493692243
1.14370493551719
1.14370493372204
1.14370493175815
1.14370492925875
1.14370492539315
1.14370491858266
1.14370490003877
1.1437048539496
1.14370473210477
1.14370441639189
1.14370363121068
1.14370177081295
1.1436975522506
1.14368836596481
1.14366889406803
1.14362938742384
1.14356052861936
1.14350698414336
1.14832572768714
1.14853639401409
1.14872961277024
1.14884338579695
1.14890325649315
1.14893329935769
1.1489477848106
1.14895443347564
1.14895731551598
1.14895849075165
1.14895894452653
1.14895911019623
1.14895916766983
1.148959187951
1.14895919577711
1.14895919977037
1.1489592016636
1.14895920341074
1.14895920527238
1.14895920673
1.14895920810917
1.1489592094914
1.14895921070644
1.14895921143527
1.14895921205804
1.1489592126872
1.14895921296295
1.14895921317948
1.14895921343588
1.14895921332555
1.14895921308809
1.14895921273144
1.1489592115429
1.14895920987636
1.14895920820467
1.14895920506786
1.1489591967281
1.14895917340649
1.14895910598852
1.14895892017777
1.14895842713665
1.14895718248296
1.14895420627705
1.14894747052672
1.14893299092708
1.14890317054082
1.14884364214343
1.14872941471888
1.14853334712892
1.14832611345562
1.15287174444739
1.15317919690382
1.15342916004882
1.15357354113239
1.15364914633076
1.15368702255251
1.15370529934664
1.15371371355024
1.1537173775991
1.15371888070792
1.15371946273984
1.1537196754282
1.15371974876816
1.15371977328203
1.15371978150398
1.15371978456186
1.15371978569591
1.15371978649819
1.15371978733043
1.15371978804059
1.15371978880797
1.15371978970042
1.15371979054814
1.15371979105433
1.15371979140671
1.15371979179135
1.15371979195661
1.15371979211261
1.15371979241135
1.15371979244029
1.15371979244904
1.1537197925207
1.15371979158358
1.1537197901528
1.15371978893547
1.15371978596409
1.15371977641778
1.15371974763976
1.15371966337364
1.15371942836925
1.15371880351927
1.15371722751608
1.15371346595258
1.15370496683328
1.15368671024285
1.15364906574438
1.15357369889377
1.15342825516925
1.1531734770863
1.15286550762102
1.1564725221708
1.15678107547732
1.15700291424949
1.15712635695075
1.15718862317583
1.15721873837084
1.15723285478719
1.15723921439361
1.15724194130906
1.15724304810234
1.15724347327187
1.1572436275994
1.15724368031887
1.15724369754364
1.15724370299296
1.15724370467087
1.1572437050931
1.15724370531076
1.15724370555324
1.1572437057963
1.1572437061345
1.15724370662767
1.15724370715735
1.1572437074807
1.15724370765194
1.15724370784793
1.15724370792661
1.15724370800979
1.15724370821405
1.15724370826907
1.15724370834894
1.15724370860618
1.15724370804901
1.15724370713216
1.15724370653269
1.15724370478137
1.15724369854736
1.15724367888296
1.15724362014525
1.15724345369025
1.15724300493668
1.15724185682132
1.15723907233995
1.157232658417
1.15721854213398
1.15718852421693
1.15712620149505
1.15700126914825
1.15677391795554
1.15645958948487
1.15894253017774
1.15918794946558
1.15934736478066
1.15943279999252
1.15947433134824
1.15949373690445
1.15950258396457
1.1595064928922
1.1595081485987
1.15950881603709
1.15950907158775
1.15950916417154
1.15950919566278
1.15950920582894
1.15950920889691
1.15950920962044
1.15950920964805
1.15950920964086
1.15950920965223
1.1595092096701
1.15950920975888
1.15950920997905
1.15950921027447
1.15950921045999
1.15950921051777
1.15950921058374
1.1595092106085
1.15950921064333
1.15950921074851
1.15950921079362
1.15950921088382
1.15950921114956
1.15950921088481
1.15950921046476
1.15950921028921
1.15950920936737
1.15950920591112
1.15950919475593
1.15950916084122
1.15950906363114
1.15950879907914
1.15950811532875
1.15950643648855
1.15950250581352
1.159493659821
1.15947428025471
1.15943257020062
1.15934570739921
1.15918124910988
1.15892730161707
1.16044304487492
1.16060782477901
1.16070591507023
1.16075665290566
1.16078049536166
1.16079128769273
1.16079608396109
1.16079816715816
1.16079904116435
1.16079939212549
1.16079952648818
1.16079957522494
1.16079959178019
1.16079959708248
1.16079959856127
1.16079959878819
1.16079959872334
1.16079959864576
1.16079959859474
1.16079959858495
1.16079959858482
1.16079959863955
1.16079959879084
1.16079959888208
1.16079959887802
1.1607995988813
1.16079959888744
1.16079959890024
1.16079959894106
1.16079959897112
1.16079959904343
1.16079959923766
1.1607995991368
1.16079959900046
1.16079959899922
1.16079959855267
1.16079959685436
1.16079959127521
1.16079957402282
1.16079952416793
1.1607993877096
1.16079903274574
1.16079815345697
1.16079606742557
1.16079127940558
1.16078049777224
1.16075650193473
1.16070470513178
1.16060276649243
1.16042970484373
1.16126448586948
1.16136134862915
1.16141476585625
1.16144149933372
1.16145368525503
1.16145904540061
1.16146137266134
1.16146236821638
1.16146278276803
1.16146294893999
1.16146301268568
1.16146303588089
1.16146304376334
1.16146304626142
1.16146304688752
1.16146304693148
1.16146304687272
1.1614630468
1.16146304674746
1.16146304673555
1.161463046718
1.16146304671796
1.16146304678617
1.16146304682149
1.16146304680066
1.16146304678832
1.16146304678504
1.16146304678837
1.1614630468051
1.16146304682255
1.16146304686892
1.16146304698572
1.16146304695698
1.16146304692481
1.1614630469565
1.16146304676088
1.1614630460096
1.16146304347817
1.16146303550072
1.16146301231435
1.16146294867991
1.16146278261513
1.16146236888087
1.16146137708072
1.16145906109601
1.16145371395713
1.16144144264727
1.16141405940942
1.16135811781009
1.1612549088181
1.16167541615099
1.16172648504702
1.16175281540932
1.16176559347568
1.16177126170574
1.16177369166608
1.16177472446395
1.16177516024119
1.16177534059413
1.16177541286571
1.16177544068302
1.1617754508484
1.16177545430694
1.16177545538576
1.16177545562919
1.16177545562581
1.16177545558394
1.16177545553627
1.16177545550011
1.16177545548408
1.16177545547385
1.16177545547023
1.16177545549119
1.16177545549975
1.16177545548243
1.16177545547158
1.16177545546681
1.1617754554675
1.16177545547453
1.16177545548319
1.16177545550821
1.16177545556892
1.16177545556535
1.16177545556383
1.16177545558893
1.16177545551204
1.1617754552074
1.16177545414151
1.16177545072217
1.16177544074732
1.16177541336777
1.16177534188399
1.16177516324632
1.1617747316263
1.16177370857779
1.16177129252714
1.16176559081267
1.16175246957218
1.16172468155727
1.16166949387694
1.161865406666
1.16188997692989
1.16190191857025
1.16190754875182
1.16190998592516
1.16191100693995
1.1619114325051
1.16191160981353
1.16191168281805
1.16191171209094
1.16191172340433
1.16191172755852
1.16191172897395
1.16191172940598
1.16191172949303
1.16191172948361
1.16191172945914
1.16191172943282
1.16191172941213
1.16191172940062
1.16191172939511
1.16191172939308
1.16191172939569
1.16191172939298
1.16191172938398
1.16191172937751
1.16191172937429
1.16191172937367
1.16191172937599
1.16191172938019
1.16191172939185
1.16191172941803
1.1619117294205
1.16191172942309
1.16191172943604
1.16191172941154
1.16191172929683
1.16191172887487
1.16191172749848
1.16191172347491
1.16191171245247
1.16191168372955
1.16191161190233
1.16191143737288
1.16191101835759
1.16191000842629
1.16190756363428
1.16190177340716
1.16188907664427
1.16186215467694
1.16194734314324
1.1619582717137
1.16196331706558
1.16196563176209
1.16196661179761
1.16196701397028
1.16196717861862
1.16196724641591
1.16196727420399
1.1619672853591
1.16196728968928
1.16196729128691
1.16196729183186
1.16196729199413
1.1619672920226
1.16196729201547
1.16196729200271
1.1619672919895
1.16196729197878
1.16196729197189
1.16196729196797
1.16196729196586
1.16196729196457
1.16196729196134
1.16196729195671
1.16196729195318
1.16196729195116
1.16196729195019
1.16196729195055
1.16196729195213
1.16196729195678
1.16196729196702
1.16196729196923
1.16196729197116
1.16196729197635
1.16196729196997
1.16196729192985
1.16196729177008
1.16196729124457
1.1619672897077
1.16196728551308
1.16196727462482
1.16196724743369
1.16196718112352
1.16196702018866
1.16196662514188
1.16196564635904
1.16196326465688
1.16195786298858
1.16194572440816
1.16198055322647
1.16198509283766
1.16198709788806
1.16198799427483
1.16198836619878
1.16198851601557
1.16198857634846
1.16198860091867
1.16198861094705
1.16198861497817
1.16198861654965
1.16198861713187
1.16198861733035
1.16198861738747
1.16198861739568
1.16198861739159
1.16198861738526
1.16198861737886
1.16198861737345
1.16198861736953
1.16198861736675
1.16198861736482
1.16198861736322
1.16198861736095
1.16198861735839
1.16198861735631
1.16198861735488
1.16198861735386
1.16198861735342
1.16198861735359
1.16198861735495
1.16198861735838
1.16198861735928
1.16198861736006
1.16198861736148
1.16198861735992
1.16198861734651
1.16198861728851
1.1619886170967
1.16198861653661
1.16198861501583
1.16198861108977
1.16198860131557
1.1619885774366
1.16198851896024
1.16198837306395
1.1619880038219
1.16198708200048
1.16198492191609
1.16197981180971
1.1619932790909
1.16199505451232
1.1619958097306
1.16199613919817
1.16199627337307
1.16199632652473
1.16199634760904
1.16199635610632
1.16199635956044
1.16199636095053
1.16199636149439
1.1619963616964
1.16199636176491
1.16199636178368
1.16199636178538
1.16199636178294
1.16199636177969
1.16199636177643
1.16199636177355
1.1619963617712
1.16199636176927
1.16199636176768
1.16199636176625
1.16199636176462
1.16199636176295
1.16199636176149
1.1619963617603
1.16199636175929
1.1619963617585
1.161996361758
1.16199636175795
1.16199636175864
1.16199636175862
1.16199636175859
1.1619963617587
1.16199636175805
1.16199636175337
1.16199636173293
1.16199636166549
1.16199636146952
1.16199636094096
1.16199635958563
1.16199635622672
1.16199634801943
1.16199632777614
1.16199627654012
1.16199614431917
1.16199580606278
1.16199498801998
1.16199296304991
1.16199790754994
1.16199856565696
1.16199883691219
1.1619989525519
1.16199899883824
1.16199901689943
1.16199902396594
1.16199902678576
1.16199902792723
1.16199902838684
1.16199902856699
1.16199902863377
1.161999028656
1.16199902866146
1.16199902866119
1.16199902865956
1.16199902865765
1.16199902865573
1.16199902865394
1.16199902865233
1.16199902865086
1.16199902864953
1.16199902864825
1.16199902864693
1.16199902864563
1.16199902864442
1.16199902864331
1.16199902864229
1.16199902864137
1.16199902864057
1.16199902863996
1.16199902863961
1.16199902863911
1.16199902863864
1.16199902863824
1.16199902863765
1.16199902863576
1.16199902862854
1.16199902860545
1.16199902853921
1.16199902836216
1.16199902791185
1.16199902680228
1.16199902409467
1.16199901737977
1.16199900017045
1.16199895495894
1.16199883656269
1.1619985414005
1.16199778104325
1.16199950520187
1.16199973769186
1.16199983105604
1.16199987001006
1.16199988535274
1.16199989125827
1.16199989353991
1.16199989444171
1.16199989480501
1.16199989495106
1.16199989500813
1.16199989502895
1.16199989503544
1.16199989503648
1.16199989503566
1.16199989503438
1.16199989503301
1.16199989503163
1.16199989503028
1.16199989502899
1.16199989502774
1.16199989502653
1.16199989502535
1.16199989502417
1.161999895023
1.16199989502188
1.16199989502081
1.16199989501978
1.1619998950188
1.16199989501789
1.16199989501707
1.16199989501635
1.16199989501563
1.16199989501496
1.16199989501434
1.1619998950137
1.16199989501267
1.16199989500994
1.16199989500206
1.16199989498022
1.16199989492275
1.16199989477809
1.16199989442418
1.16199989356286
1.16199989141856
1.16199988586363
1.1619998710284
1.16199983130055
1.16199972933431
1.16199945729822
1.16200002256011
1.1620001012011
1.16200013212011
1.1620001447655
1.16200014967168
1.16200015153664
1.16200015224879
1.16200015252749
1.16200015263897
1.16200015268344
1.16200015270048
1.1620001527063
1.16200015270765
1.16200015270728
1.16200015270631
1.1620001527052
1.16200015270403
1.16200015270285
1.16200015270168
1.16200015270051
1.16200015269935
1.16200015269821
1.16200015269707
1.16200015269595
1.16200015269483
1.16200015269374
1.16200015269268
1.16200015269165
1.16200015269066
1.16200015268971
1.16200015268881
1.16200015268797
1.16200015268716
1.16200015268639
1.16200015268568
1.16200015268501
1.16200015268424
1.16200015268298
1.16200015268014
1.16200015267296
1.16200015265472
1.16200015260956
1.16200015250014
1.16200015223496
1.16200015157326
1.16200014984337
1.16200014515304
1.16200013232061
1.16200009845794
1.1620000052895
1.16200017146609
1.16200019703759
1.1620002069221
1.16200021089134
1.16200021240968
1.16200021298005
1.1620002131953
1.1620002132785
1.16200021331128
1.16200021332398
1.16200021332846
1.16200021332955
1.16200021332929
1.16200021332849
1.1620002133275
1.16200021332644
1.16200021332535
1.16200021332425
1.16200021332314
1.16200021332202
1.1620002133209
1.16200021331979
1.16200021331867
1.16200021331757
1.16200021331648
1.1620002133154
1.16200021331435
1.16200021331332
1.16200021331232
1.16200021331135
1.16200021331043
1.16200021330955
1.1620002133087
1.16200021330791
1.16200021330716
1.16200021330647
1.16200021330578
1.16200021330499
1.16200021330376
1.16200021330126
1.16200021329546
1.16200021328165
1.16200021324871
1.16200021316945
1.16200021297154
1.16200021245017
1.16200021101654
1.16200020701281
1.1620001961655
1.16200016549857
1.16200019963259
1.16200020765319
1.16200021071207
1.16200021192
1.1620002123758
1.16200021254492
1.1620002126078
1.16200021263155
1.16200021264049
1.16200021264357
1.16200021264423
1.1620002126439
1.16200021264315
1.16200021264223
1.16200021264123
1.1620002126402
1.16200021263915
1.16200021263807
1.16200021263699
1.16200021263589
1.16200021263479
1.16200021263369
1.16200021263259
1.1620002126315
1.16200021263041
1.16200021262934
1.1620002126283
1.16200021262727
1.16200021262627
1.1620002126253
1.16200021262437
1.16200021262348
1.16200021262262
1.16200021262182
1.16200021262106
1.16200021262035
1.16200021261969
1.16200021261904
1.16200021261831
1.16200021261725
1.16200021261529
1.16200021261104
1.1620002126013
1.16200021257822
1.16200021252072
1.16200021236827
1.16200021194348
1.16200021073347
1.16200020737227
1.16200019763776
1.16200018965118
1.16200019208489
1.16200019300324
1.16200019336031
1.16200019349313
1.16200019354159
1.1620001935591
1.16200019356529
1.16200019356722
1.16200019356748
1.16200019356703
1.16200019356628
1.1620001935654
1.16200019356444
1.16200019356345
1.16200019356243
1.16200019356139
1.16200019356034
1.16200019355926
1.16200019355818
1.16200019355709
1.16200019355599
1.1620001935549
1.16200019355382
1.16200019355274
1.16200019355168
1.16200019355063
1.16200019354961
1.16200019354861
1.16200019354764
1.16200019354671
1.16200019354582
1.16200019354496
1.16200019354415
1.16200019354339
1.16200019354268
1.16200019354202
1.16200019354141
1.16200019354082
1.1620001935402
1.16200019353937
1.16200019353795
1.16200019353505
1.16200019352846
1.16200019351219
1.16200019346887
1.1620001933466
1.16200019299156
1.16200019198169
1.16200018899302
1.16200016801325
1.16200016872938
1.16200016899726
1.16200016909982
1.16200016913726
1.16200016915045
1.16200016915482
1.16200016915597
1.16200016915591
1.16200016915537
1.16200016915461
1.16200016915375
1.16200016915284
1.16200016915188
1.1620001691509
1.16200016914989
1.16200016914886
1.16200016914782
1.16200016914675
1.16200016914568
1.16200016914459
1.16200016914351
1.16200016914242
1.16200016914134
1.16200016914027
1.16200016913921
1.16200016913817
1.16200016913715
1.16200016913616
1.16200016913519
1.16200016913426
1.16200016913337
1.16200016913251
1.1620001691317
1.16200016913093
1.16200016913022
1.16200016912956
1.16200016912896
1.16200016912841
1.16200016912791
1.1620001691274
1.16200016912679
1.16200016912584
1.16200016912394
1.16200016911943
1.16200016910746
1.16200016907322
1.16200016897191
1.16200016867716
1.16200016778747
1.1620001429215
1.16200014312619
1.16200014320209
1.16200014323061
1.16200014324063
1.1620001432438
1.16200014324447
1.16200014324423
1.16200014324363
1.16200014324288
1.16200014324205
1.16200014324118
1.16200014324026
1.16200014323931
1.16200014323834
1.16200014323734
1.16200014323632
1.16200014323528
1.16200014323423
1.16200014323316
1.16200014323208
1.162000143231
1.16200014322992
1.16200014322885
1.16200014322778
1.16200014322673
1.1620001432257
1.16200014322468
1.16200014322369
1.16200014322273
1.1620001432218
1.1620001432209
1.16200014322004
1.16200014321923
1.16200014321847
1.16200014321775
1.16200014321709
1.16200014321649
1.16200014321595
1.16200014321547
1.16200014321504
1.16200014321465
1.16200014321422
1.16200014321361
1.16200014321235
1.16200014320912
1.16200014319978
1.16200014317164
1.162000143088
1.16200014283071
1.16200011683507
1.16200011689189
1.16200011691267
1.16200011692021
1.16200011692256
1.16200011692297
1.16200011692265
1.16200011692205
1.16200011692133
1.16200011692054
1.1620001169197
1.16200011691883
1.16200011691792
1.16200011691699
1.16200011691603
1.16200011691504
1.16200011691403
1.16200011691299
1.16200011691195
1.16200011691089
1.16200011690982
1.16200011690874
1.16200011690767
1.1620001169066
1.16200011690554
1.16200011690449
1.16200011690346
1.16200011690245
1.16200011690146
1.1620001169005
1.16200011689957
1.16200011689868
1.16200011689783
1.16200011689701
1.16200011689624
1.16200011689553
1.16200011689486
1.16200011689425
1.16200011689371
1.16200011689323
1.16200011689282
1.16200011689247
1.16200011689217
1.16200011689188
1.16200011689148
1.16200011689061
1.16200011688811
1.1620001168805
1.16200011685745
1.16200011678513
1.16200009046964
1.16200009048485
1.16200009049022
1.16200009049198
1.16200009049226
1.16200009049194
1.16200009049139
1.16200009049071
1.16200009048998
1.16200009048919
1.16200009048837
1.16200009048751
1.16200009048662
1.1620000904857
1.16200009048474
1.16200009048377
1.16200009048276
1.16200009048174
1.1620000904807
1.16200009047965
1.16200009047859
1.16200009047752
1.16200009047646
1.16200009047539
1.16200009047434
1.1620000904733
1.16200009047227
1.16200009047126
1.16200009047028
1.16200009046932
1.16200009046839
1.1620000904675
1.16200009046664
1.16200009046583
1.16200009046506
1.16200009046434
1.16200009046367
1.16200009046306
1.1620000904625
1.16200009046202
1.1620000904616
1.16200009046124
1.16200009046096
1.16200009046074
1.16200009046054
1.16200009046026
1.16200009045958
1.16200009045756
1.16200009045146
1.16200009043175
1.16200006402785
1.16200006403166
1.16200006403283
1.16200006403305
1.1620000640328
1.16200006403233
1.16200006403173
1.16200006403106
1.16200006403034
1.16200006402958
1.16200006402877
1.16200006402793
1.16200006402705
1.16200006402614
1.1620000640252
1.16200006402424
1.16200006402324
1.16200006402223
1.1620000640212
1.16200006402016
1.1620000640191
1.16200006401804
1.16200006401698
1.16200006401593
1.16200006401488
1.16200006401384
1.16200006401281
1.16200006401181
1.16200006401083
1.16200006400987
1.16200006400895
1.16200006400806
1.1620000640072
1.16200006400639
1.16200006400562
1.16200006400489
1.16200006400422
1.1620000640036
1.16200006400304
1.16200006400254
1.1620000640021
1.16200006400174
1.16200006400144
1.16200006400121
1.16200006400104
1.16200006400089
1.16200006400065
1.16200006400011
1.16200006399861
1.16200006399349
1.16200003756563
1.1620000375664
1.16200003756646
1.1620000375663
1.16200003756595
1.16200003756546
1.16200003756488
1.16200003756423
1.16200003756354
1.1620000375628
1.16200003756201
1.16200003756119
1.16200003756032
1.16200003755943
1.1620000375585
1.16200003755754
1.16200003755656
1.16200003755556
1.16200003755454
1.1620000375535
1.16200003755245
1.1620000375514
1.16200003755035
1.1620000375493
1.16200003754825
1.16200003754722
1.1620000375462
1.1620000375452
1.16200003754423
1.16200003754327
1.16200003754235
1.16200003754146
1.1620000375406
1.16200003753979
1.16200003753901
1.16200003753829
1.16200003753761
1.16200003753698
1.16200003753641
1.1620000375359
1.16200003753545
1.16200003753506
1.16200003753474
1.16200003753449
1.1620000375343
1.16200003753415
1.16200003753401
1.16200003753382
1.16200003753354
1.16200003753236
1.16200001109807
1.16200001109805
1.16200001109784
1.16200001109761
1.16200001109725
1.16200001109678
1.16200001109624
1.16200001109562
1.16200001109495
1.16200001109423
1.16200001109347
1.16200001109266
1.16200001109182
1.16200001109094
1.16200001109002
1.16200001108908
1.16200001108811
1.16200001108711
1.1620000110861
1.16200001108507
1.16200001108403
1.16200001108299
1.16200001108194
1.1620000110809
1.16200001107986
1.16200001107883
1.16200001107782
1.16200001107682
1.16200001107584
1.16200001107489
1.16200001107397
1.16200001107308
1.16200001107223
1.16200001107141
1.16200001107064
1.1620000110699
1.16200001106922
1.16200001106858
1.162000011068
1.16200001106748
1.16200001106701
1.16200001106661
1.16200001106627
1.16200001106599
1.16200001106577
1.1620000110656
1.16200001106545
1.16200001106533
1.16200001106534
1.1620000110652
1.16199998462915
1.16199998462893
1.16199998462867
1.16199998462844
1.16199998462811
1.16199998462767
1.16199998462716
1.16199998462657
1.16199998462593
1.16199998462524
1.16199998462449
1.1619999846237
1.16199998462288
1.16199998462201
1.16199998462111
1.16199998462017
1.16199998461921
1.16199998461823
1.16199998461723
1.16199998461621
1.16199998461518
1.16199998461414
1.1619999846131
1.16199998461206
1.16199998461103
1.16199998461
1.161999984609
1.161999984608
1.16199998460703
1.16199998460608
1.16199998460516
1.16199998460428
1.16199998460342
1.1619999846026
1.16199998460182
1.16199998460109
1.1619999846004
1.16199998459975
1.16199998459916
1.16199998459862
1.16199998459814
1.16199998459772
1.16199998459735
1.16199998459705
1.1619999845968
1.16199998459659
1.16199998459642
1.16199998459629
1.16199998459637
1.16199998459648
1.16199995815987
1.16199995815962
1.16199995815936
1.16199995815916
1.16199995815886
1.16199995815845
1.16199995815797
1.16199995815742
1.1619999581568
1.16199995815613
1.16199995815541
1.16199995815464
1.16199995815383
1.16199995815297
1.16199995815209
1.16199995815116
1.16199995815022
1.16199995814924
1.16199995814825
1.16199995814724
1.16199995814621
1.16199995814518
1.16199995814415
1.16199995814312
1.16199995814209
1.16199995814107
1.16199995814007
1.16199995813908
1.16199995813811
1.16199995813717
1.16199995813625
1.16199995813536
1.16199995813451
1.16199995813369
1.1619999581329
1.16199995813216
1.16199995813147
1.16199995813082
1.16199995813021
1.16199995812966
1.16199995812916
1.16199995812872
1.16199995812833
1.161999958128
1.16199995812772
1.16199995812749
1.16199995812728
1.16199995812713
1.1619999581272
1.16199995812737
1.16199993169051
1.16199993169026
1.16199993169002
1.16199993168985
1.16199993168958
1.16199993168921
1.16199993168876
1.16199993168823
1.16199993168764
1.16199993168699
1.16199993168629
1.16199993168554
1.16199993168475
1.16199993168391
1.16199993168304
1.16199993168213
1.16199993168119
1.16199993168023
1.16199993167924
1.16199993167824
1.16199993167722
1.1619999316762
1.16199993167518
1.16199993167415
1.16199993167313
1.16199993167212
1.16199993167112
1.16199993167013
1.16199993166917
1.16199993166822
1.16199993166731
1.16199993166642
1.16199993166556
1.16199993166474
1.16199993166396
1.16199993166321
1.16199993166251
1.16199993166185
1.16199993166124
1.16199993166067
1.16199993166016
1.16199993165969
1.16199993165928
1.16199993165892
1.16199993165862
1.16199993165835
1.16199993165812
1.16199993165794
1.16199993165799
1.16199993165816
1.16199990522113
1.16199990522089
1.16199990522068
1.16199990522053
1.16199990522029
1.16199990521995
1.16199990521953
1.16199990521903
1.16199990521847
1.16199990521785
1.16199990521717
1.16199990521644
1.16199990521566
1.16199990521484
1.16199990521398
1.16199990521308
1.16199990521215
1.1619999052112
1.16199990521022
1.16199990520923
1.16199990520822
1.16199990520721
1.16199990520619
1.16199990520517
1.16199990520416
1.16199990520315
1.16199990520215
1.16199990520117
1.16199990520021
1.16199990519927
1.16199990519835
1.16199990519747
1.16199990519661
1.16199990519579
1.161999905195
1.16199990519425
1.16199990519354
1.16199990519287
1.16199990519225
1.16199990519167
1.16199990519114
1.16199990519066
1.16199990519022
1.16199990518984
1.1619999051895
1.16199990518921
1.16199990518894
1.16199990518873
1.16199990518877
1.16199990518893
1.16199987875174
1.16199987875152
1.16199987875132
1.16199987875121
1.161999878751
1.16199987875069
1.1619998787503
1.16199987874983
1.1619998787493
1.1619998787487
1.16199987874804
1.16199987874733
1.16199987874656
1.16199987874576
1.16199987874491
1.16199987874403
1.16199987874311
1.16199987874217
1.1619998787412
1.16199987874022
1.16199987873922
1.16199987873821
1.1619998787372
1.16199987873619
1.16199987873518
1.16199987873417
1.16199987873318
1.16199987873221
1.16199987873125
1.16199987873031
1.16199987872939
1.16199987872851
1.16199987872765
1.16199987872682
1.16199987872603
1.16199987872528
1.16199987872456
1.16199987872389
1.16199987872325
1.16199987872266
1.16199987872211
1.16199987872161
1.16199987872116
1.16199987872075
1.16199987872038
1.16199987872006
1.16199987871977
1.16199987871953
1.16199987871954
1.16199987871969
1.16199985228235
1.16199985228213
1.16199985228197
1.16199985228189
1.16199985228171
1.16199985228143
1.16199985228107
1.16199985228063
1.16199985228012
1.16199985227954
1.1619998522789
1.16199985227821
1.16199985227746
1.16199985227667
1.16199985227584
1.16199985227497
1.16199985227406
1.16199985227313
1.16199985227217
1.1619998522712
1.16199985227021
1.16199985226921
1.1619998522682
1.1619998522672
1.16199985226619
1.16199985226519
1.16199985226421
1.16199985226323
1.16199985226228
1.16199985226134
1.16199985226043
1.16199985225954
1.16199985225868
1.16199985225786
1.16199985225706
1.1619998522563
1.16199985225558
1.16199985225489
1.16199985225425
1.16199985225365
1.16199985225308
1.16199985225256
1.16199985225208
1.16199985225165
1.16199985225126
1.16199985225091
1.16199985225058
1.16199985225031
1.1619998522503
1.16199985225043
1.16199982581294
1.16199982581275
1.1619998258126
1.16199982581256
1.16199982581241
1.16199982581216
1.16199982581183
1.16199982581142
1.16199982581093
1.16199982581038
1.16199982580976
1.16199982580908
1.16199982580836
1.16199982580758
1.16199982580676
1.1619998258059
1.16199982580501
1.16199982580409
1.16199982580314
1.16199982580217
1.16199982580119
1.1619998258002
1.1619998257992
1.1619998257982
1.1619998257972
1.16199982579621
1.16199982579522
1.16199982579425
1.1619998257933
1.16199982579237
1.16199982579146
1.16199982579057
1.16199982578971
1.16199982578888
1.16199982578808
1.16199982578732
1.16199982578659
1.1619998257859
1.16199982578524
1.16199982578462
1.16199982578405
1.16199982578351
1.16199982578301
1.16199982578255
1.16199982578213
1.16199982578175
1.1619998257814
1.16199982578109
1.16199982578105
1.16199982578117
1.16199979934353
1.16199979934335
1.16199979934324
1.16199979934322
1.16199979934311
1.16199979934289
1.16199979934259
1.1619997993422
1.16199979934174
1.16199979934121
1.16199979934061
1.16199979933995
1.16199979933924
1.16199979933848
1.16199979933768
1.16199979933683
1.16199979933595
1.16199979933504
1.1619997993341
1.16199979933314
1.16199979933217
1.16199979933118
1.16199979933019
1.16199979932919
1.1619997993282
1.16199979932721
1.16199979932623
1.16199979932527
1.16199979932432
1.16199979932339
1.16199979932248
1.16199979932159
1.16199979932073
1.1619997993199
1.1619997993191
1.16199979931833
1.16199979931759
1.16199979931689
1.16199979931622
1.16199979931559
1.161999799315
1.16199979931444
1.16199979931392
1.16199979931344
1.161999799313
1.16199979931258
1.1619997993122
1.16199979931186
1.1619997993118
1.1619997993119
1.1619997728741
1.16199977287394
1.16199977287386
1.16199977287389
1.1619997728738
1.16199977287362
1.16199977287334
1.16199977287298
1.16199977287255
1.16199977287204
1.16199977287146
1.16199977287082
1.16199977287012
1.16199977286938
1.16199977286859
1.16199977286775
1.16199977286688
1.16199977286598
1.16199977286505
1.1619997728641
1.16199977286314
1.16199977286216
1.16199977286117
1.16199977286018
1.1619997728592
1.16199977285821
1.16199977285724
1.16199977285627
1.16199977285533
1.1619997728544
1.16199977285349
1.1619997728526
1.16199977285174
1.16199977285091
1.1619997728501
1.16199977284933
1.16199977284859
1.16199977284788
1.1619997728472
1.16199977284656
1.16199977284595
1.16199977284537
1.16199977284483
1.16199977284433
1.16199977284386
1.16199977284341
1.161999772843
1.16199977284263
1.16199977284253
1.16199977284261
1.16199974640466
1.16199974640453
1.16199974640448
1.16199974640454
1.16199974640449
1.16199974640434
1.16199974640409
1.16199974640376
1.16199974640335
1.16199974640286
1.1619997464023
1.16199974640168
1.161999746401
1.16199974640027
1.16199974639949
1.16199974639867
1.16199974639781
1.16199974639691
1.161999746396
1.16199974639505
1.1619997463941
1.16199974639313
1.16199974639215
1.16199974639116
1.16199974639018
1.1619997463892
1.16199974638823
1.16199974638727
1.16199974638633
1.1619997463854
1.16199974638449
1.1619997463836
1.16199974638274
1.16199974638191
1.1619997463811
1.16199974638032
1.16199974637957
1.16199974637885
1.16199974637817