/*--------------------------------*- C++ -*----------------------------------*\
  =========                 |
  \\      /  F ield         | OpenFOAM: The Open Source CFD Toolbox
   \\    /   O peration     | Website:  https://openfoam.org
    \\  /    A nd           | Version:  10
     \\/     M anipulation  |
\*---------------------------------------------------------------------------*/
FoamFile
{
    format      ascii;
    class       volScalarField;
    location    "4.6";
    object      T;
}
// * * * * * * * * * * * * * * * * * * * * * * * * * * * * * * * * * * * * * //

dimensions      [0 0 0 1 0 0 0];

internalField   nonuniform List<scalar> 
2500
(
304.851965682448
304.837337307852
304.819195641286
304.808689359121
304.803466393653
304.801002745726
304.799884232061
304.799397995427
304.799196869134
304.799118669757
304.799088466905
304.799077272214
304.799073138855
304.79907096345
304.799069552949
304.799068257764
304.799067584274
304.799066798028
304.799065921499
304.799065300162
304.799064755278
304.799064265766
304.79906385433
304.799063609292
304.799063354599
304.799063115263
304.799063023109
304.799062961697
304.799062950069
304.799063029447
304.799063171844
304.79906344084
304.799063815111
304.799064293306
304.799064816485
304.799065482391
304.799066512402
304.799068327244
304.799073269065
304.79908555175
304.799118023436
304.799202161271
304.799411413343
304.799907213718
304.801031476706
304.803479685921
304.808669212656
304.819198816883
304.837553317227
304.851827267846
303.572564291364
303.516882544013
303.465830363157
303.435777334011
303.419964940836
303.412030969194
303.408205677524
303.406449942557
303.405688878855
303.405378534003
303.405258705562
303.405214957
303.405199779724
303.405194423827
303.405192356918
303.405191302141
303.405190801909
303.405190340249
303.40518984835
303.405189463135
303.405189098639
303.405188733332
303.405188412176
303.405188219418
303.405188054669
303.405187888237
303.405187815137
303.405187757682
303.405187689707
303.405187718584
303.40518778104
303.405187874983
303.405188188613
303.405188628481
303.405189069724
303.40518989787
303.405192099973
303.405198258339
303.405216061222
303.405265128063
303.405395325201
303.405724001033
303.406509931112
303.408288663577
303.412112411392
303.41998763163
303.435709618112
303.465882674354
303.517687719207
303.572462300053
302.375506738688
302.294889528209
302.229378283275
302.191551302832
302.171746970165
302.161826494796
302.157039701019
302.154836025323
302.153876422722
302.153482765005
302.153330333498
302.153274631274
302.153255423674
302.153249003361
302.153246849807
302.153246048686
302.153245751397
302.153245540993
302.15324532274
302.153245136455
302.153244935182
302.153244701154
302.153244478841
302.153244345976
302.153244253397
302.153244152376
302.153244108812
302.153244067682
302.153243989177
302.153243981339
302.153243978799
302.153243959794
302.153244204997
302.153244579496
302.153244898109
302.153245676109
302.153248176065
302.153255712718
302.153277781428
302.153339327745
302.153502972772
302.153915720977
302.154900862413
302.157126778365
302.161908283147
302.171768069133
302.191509966558
302.229615377158
302.296388921956
302.377142534837
301.434027489634
301.353624665629
301.295844415101
301.263702054566
301.247491600225
301.239652004677
301.235977355835
301.234321913874
301.233612087648
301.233323986078
301.2332133132
301.233173141161
301.233159417921
301.233154934016
301.23315351528
301.233153078238
301.233152968048
301.233152911101
301.233152847688
301.233152784123
301.23315269579
301.233152567118
301.233152428945
301.23315234448
301.233152299615
301.233152248311
301.233152227551
301.233152205623
301.233152152188
301.23315213761
301.233152116571
301.233152049377
301.233152194182
301.233152432627
301.233152588471
301.233153044157
301.23315466671
301.233159785237
301.233175074647
301.233218403133
301.233335214663
301.233634072214
301.234358882932
301.236028464047
301.239703079217
301.247517353164
301.26374251937
301.296272808557
301.355489277746
301.437398416812
300.791586336588
300.727903775526
300.686552377501
300.664395664671
300.653626128967
300.648594319991
300.646300356726
300.645286817941
300.644857514753
300.644684456871
300.644618195907
300.644594189987
300.644586024504
300.644583388304
300.644582592555
300.644582404679
300.644582397237
300.644582398811
300.644582395571
300.644582390641
300.644582367324
300.644582309941
300.644582233046
300.644582184651
300.644582169378
300.644582151986
300.644582145286
300.644582135984
300.644582108445
300.644582096492
300.644582072859
300.644582003719
300.64458207214
300.644582180842
300.644582226159
300.644582464994
300.644583360978
300.644586253202
300.644595046668
300.644620251756
300.644688846312
300.644866133376
300.645301434592
300.646320612099
300.648614298648
300.653639368892
300.664455245525
300.686982225078
300.729642048557
300.795538795411
300.402639954923
300.359989614197
300.334606440496
300.321478513606
300.315309903678
300.312517754404
300.311276899373
300.310737953145
300.310511838501
300.310421041109
300.310386279923
300.310373671008
300.310369387755
300.310368015743
300.310367632898
300.310367573917
300.310367590412
300.310367610195
300.310367623103
300.310367625341
300.310367625079
300.310367610623
300.310367571188
300.310367547289
300.310367548049
300.310367546917
300.310367545048
300.310367541464
300.310367530637
300.310367522607
300.310367503652
300.310367453167
300.310367479038
300.310367514097
300.310367514218
300.31036762956
300.310368068757
300.310369511979
300.310373975198
300.310386873024
300.310422176039
300.310514008671
300.310741489707
300.311281168983
300.312519889877
300.315309271323
300.321517565355
300.334919505517
300.361298672354
300.406093305138
300.190137995936
300.16510078742
300.151295221315
300.144386488792
300.141237386539
300.139852231272
300.139250830316
300.138993563779
300.138886437352
300.13884349589
300.138827022856
300.138821028643
300.138818991458
300.138818345659
300.1388181836
300.138818171964
300.138818186867
300.138818205373
300.138818218658
300.138818221442
300.138818225682
300.138818225395
300.138818207477
300.138818198056
300.13881820315
300.138818206053
300.138818206624
300.138818205492
300.138818200904
300.138818196137
300.13881818391
300.138818153491
300.138818160695
300.138818168796
300.138818160408
300.138818210772
300.138818404744
300.138819058745
300.13882112009
300.138827111657
300.138843555609
300.138886469069
300.138993384
300.13924967998
300.13984816682
300.141229960706
300.144401129128
300.151477783774
300.165935817332
300.192613702159
300.083942104458
300.070750568623
300.063949662002
300.060649307907
300.059185324931
300.058557722199
300.058290974995
300.058178424079
300.058131843096
300.05811317689
300.058105992131
300.058103366423
300.058102472918
300.058102194028
300.058102130887
300.058102131485
300.058102142018
300.058102154044
300.058102163093
300.058102166939
300.058102169288
300.058102169928
300.058102164222
300.058102161719
300.058102165903
300.058102168422
300.058102169375
300.058102168925
300.058102166846
300.058102164355
300.058102157647
300.058102141731
300.05810214243
300.058102142612
300.058102135929
300.058102155602
300.058102234114
300.058102509252
300.058103392245
300.058105968383
300.058113039747
300.05813150218
300.058177639878
300.058289116846
300.058553345815
300.059177355804
300.060649986923
300.064038977891
300.071216396879
300.085471944924
300.034864954457
300.028520174248
300.025436580606
300.023982765801
300.023353447701
300.023089805551
300.02297991791
300.02293413396
300.022915282865
300.022907723935
300.022904802412
300.022903729495
300.02290336376
300.022903251941
300.022903229197
300.022903231355
300.022903237393
300.022903243905
300.022903248956
300.022903251638
300.022903252767
300.022903252995
300.02290325203
300.022903252439
300.022903254476
300.022903255862
300.022903256415
300.022903256306
300.022903255443
300.022903254104
300.022903250847
300.022903243853
300.022903242991
300.02290324211
300.022903238569
300.022903244711
300.022903274162
300.022903382966
300.022903738234
300.02290477706
300.022907623124
300.022915039741
300.022933586567
300.022978652708
300.023086848871
300.023347628915
300.023978914133
300.025474055662
300.028752641394
300.035704726858
300.013700707397
300.010878986953
300.009576311576
300.008978676219
300.00872563973
300.008621802242
300.008579291347
300.008561786484
300.008554611628
300.008551731247
300.008550612997
300.008550200259
300.008550059305
300.008550017148
300.00855000953
300.008550011097
300.00855001411
300.008550017236
300.008550019717
300.008550021204
300.008550021924
300.008550022175
300.008550022216
300.008550022759
300.008550023669
300.008550024298
300.008550024542
300.008550024522
300.008550024165
300.008550023504
300.008550022059
300.008550019179
300.008550018386
300.008550017677
300.00855001614
300.008550017604
300.008550027794
300.008550068894
300.008550204441
300.00855060113
300.00855168405
300.00855449523
300.008561515689
300.008578636356
300.008620188262
300.008722185744
300.008974898667
300.009589834246
300.010984508568
300.01411865496
300.005119306531
300.00394725449
300.003429586543
300.003198155884
300.003102131838
300.003063451671
300.003047874588
300.003041530766
300.003038941379
300.003037900377
300.003037494408
300.003037343842
300.003037292344
300.003037277336
300.003037274949
300.003037275731
300.003037277084
300.003037278455
300.003037279562
300.003037280284
300.003037280711
300.003037280917
300.00303728104
300.003037281335
300.003037281712
300.003037281967
300.003037282059
300.003037282052
300.003037281905
300.003037281607
300.003037281011
300.003037279893
300.003037279435
300.003037279025
300.003037278461
300.003037278681
300.003037281974
300.0030372968
300.003037346189
300.003037490681
300.00303788323
300.003038896807
300.003041420299
300.003047585419
300.003062682979
300.00310035078
300.003195682281
300.003433679604
300.003991374556
300.005310719941
300.001826890356
300.001368514938
300.001173534139
300.00108847265
300.001053831384
300.0010401085
300.001034664724
300.00103247065
300.001031578623
300.001031219487
300.001031078827
300.001031026424
300.001031008482
300.001031003375
300.001031002668
300.001031003026
300.001031003586
300.001031004143
300.001031004601
300.001031004917
300.001031005127
300.001031005245
300.001031005325
300.001031005458
300.001031005603
300.001031005699
300.00103100573
300.001031005724
300.001031005665
300.001031005542
300.001031005311
300.001031004899
300.001031004681
300.00103100448
300.001031004253
300.001031004239
300.001031005281
300.001031010409
300.001031027689
300.001031078174
300.001031214553
300.001031564415
300.00103243159
300.001034550558
300.001039776998
300.001053005141
300.001087141813
300.001174472291
300.001385672945
300.001908476552
300.000625092032
300.000455184125
300.000385152229
300.000355296475
300.000343346132
300.000338682854
300.000336858173
300.000336129897
300.000335834944
300.000335716038
300.000335669281
300.00033565179
300.000335645796
300.000335644124
300.000335643928
300.000335644077
300.000335644294
300.000335644506
300.000335644683
300.00033564481
300.0003356449
300.000335644955
300.000335644995
300.000335645048
300.000335645101
300.000335645135
300.000335645145
300.000335645141
300.000335645118
300.00033564507
300.000335644985
300.000335644841
300.000335644749
300.000335644662
300.000335644569
300.000335644538
300.00033564486
300.000335646575
300.000335652406
300.000335669401
300.000335715027
300.000335831235
300.000336117681
300.00033681675
300.000338550451
300.000342993629
300.000354666347
300.000385233688
300.000461437747
300.000657744258
300.000205782453
300.000145759018
300.000121654448
300.000111597171
300.000107635781
300.000106110827
300.000105521494
300.000105288412
300.000105194369
300.000105156414
300.000105141436
300.000105135811
300.000105133881
300.000105133351
300.000105133299
300.000105133356
300.000105133434
300.00010513351
300.000105133573
300.000105133621
300.000105133655
300.000105133678
300.000105133695
300.000105133714
300.000105133732
300.000105133743
300.000105133746
300.000105133744
300.000105133736
300.000105133719
300.000105133689
300.000105133641
300.000105133606
300.000105133571
300.000105133535
300.000105133518
300.000105133617
300.000105134174
300.000105136079
300.000105141611
300.000105156365
300.00010519366
300.000105285012
300.000105507406
300.000106061075
300.000107495346
300.000111325597
300.000121582569
300.000147907935
300.0002181412
300.000065379277
300.000045075976
300.000037093272
300.000033828285
300.000032561372
300.000032079617
300.000031895503
300.000031823296
300.000031794269
300.000031782543
300.0000317779
300.00003177615
300.000031775547
300.000031775384
300.000031775369
300.000031775388
300.000031775413
300.000031775438
300.000031775459
300.000031775475
300.000031775487
300.000031775495
300.000031775501
300.000031775508
300.000031775513
300.000031775517
300.000031775517
300.000031775517
300.000031775514
300.000031775508
300.000031775498
300.000031775483
300.000031775471
300.000031775459
300.000031775446
300.00003177544
300.000031775471
300.000031775649
300.000031776253
300.000031778
300.000031782626
300.000031794229
300.000031822456
300.000031890935
300.000032061821
300.000032508537
300.000033719593
300.000037032782
300.000045775416
300.00006982933
300.000020101573
300.000013499545
300.000010947463
300.00000992248
300.000009530248
300.000009382744
300.000009326928
300.000009305204
300.000009296501
300.000009292982
300.000009291583
300.000009291053
300.000009290869
300.000009290818
300.000009290812
300.000009290817
300.000009290824
300.000009290831
300.000009290837
300.000009290841
300.000009290845
300.000009290847
300.000009290848
300.00000929085
300.000009290852
300.000009290852
300.000009290853
300.000009290852
300.000009290852
300.00000929085
300.000009290847
300.000009290843
300.000009290839
300.000009290836
300.000009290833
300.000009290831
300.000009290842
300.000009290899
300.000009291087
300.000009291624
300.000009293035
300.000009296544
300.00000930502
300.000009325491
300.000009376627
300.000009511315
300.000009881544
300.000010915343
300.000013715948
300.000021633471
300.000005995873
300.000003925076
300.000003135225
300.000002823171
300.000002705282
300.00000266139
300.000002644925
300.000002638559
300.000002636016
300.000002634985
300.000002634573
300.000002634415
300.000002634358
300.000002634341
300.000002634337
300.000002634337
300.000002634338
300.000002634338
300.000002634339
300.00000263434
300.00000263434
300.00000263434
300.00000263434
300.00000263434
300.00000263434
300.00000263434
300.00000263434
300.00000263434
300.00000263434
300.000002634339
300.000002634339
300.000002634338
300.000002634338
300.000002634338
300.000002634338
300.000002634339
300.000002634344
300.000002634363
300.000002634421
300.000002634583
300.000002635004
300.00000263604
300.00000263852
300.000002644477
300.000002659353
300.000002698775
300.000002808527
300.000003121027
300.000003988879
300.000006502146
300.000001739042
300.000001110656
300.000000873453
300.000000781095
300.000000746611
300.000000733886
300.000000729148
300.000000727325
300.000000726597
300.0000007263
300.000000726179
300.000000726131
300.000000726112
300.000000726104
300.000000726101
300.000000726099
300.000000726098
300.000000726097
300.000000726096
300.000000726095
300.000000726094
300.000000726093
300.000000726093
300.000000726092
300.000000726092
300.000000726091
300.000000726091
300.000000726091
300.000000726092
300.000000726092
300.000000726092
300.000000726092
300.000000726093
300.000000726094
300.000000726095
300.000000726097
300.0000007261
300.000000726108
300.000000726127
300.000000726177
300.000000726301
300.000000726601
300.000000727312
300.000000729004
300.000000733222
300.000000744452
300.000000776082
300.000000867826
300.000001128608
300.000001900249
300.000000491648
300.000000306709
300.000000237455
300.000000210825
300.000000200984
300.000000197381
300.000000196046
300.000000195533
300.000000195326
300.00000019524
300.000000195203
300.000000195186
300.000000195178
300.000000195174
300.000000195171
300.000000195168
300.000000195166
300.000000195164
300.000000195163
300.000000195161
300.00000019516
300.000000195159
300.000000195158
300.000000195158
300.000000195157
300.000000195157
300.000000195157
300.000000195157
300.000000195157
300.000000195157
300.000000195158
300.000000195159
300.00000019516
300.000000195161
300.000000195163
300.000000195165
300.000000195167
300.000000195172
300.000000195179
300.000000195196
300.000000195234
300.000000195321
300.000000195522
300.000000195995
300.000000197165
300.000000200287
300.000000209172
300.000000235389
300.000000311528
300.000000541255
300.000000135954
300.000000083065
300.000000063386
300.000000055889
300.000000053141
300.000000052141
300.00000005177
300.000000051626
300.000000051566
300.000000051538
300.000000051525
300.000000051517
300.000000051512
300.000000051509
300.000000051506
300.000000051503
300.000000051501
300.000000051498
300.000000051497
300.000000051495
300.000000051494
300.000000051493
300.000000051492
300.000000051491
300.000000051491
300.00000005149
300.00000005149
300.00000005149
300.00000005149
300.000000051491
300.000000051492
300.000000051493
300.000000051494
300.000000051495
300.000000051497
300.000000051499
300.000000051501
300.000000051505
300.000000051509
300.000000051516
300.00000005153
300.000000051557
300.000000051615
300.000000051747
300.000000052067
300.000000052918
300.00000005536
300.00000006267
300.000000084296
300.000000150743
300.000000037067
300.000000022363
300.000000016925
300.000000014859
300.000000014104
300.000000013828
300.000000013725
300.000000013682
300.000000013662
300.000000013651
300.000000013644
300.000000013639
300.000000013635
300.000000013631
300.000000013628
300.000000013626
300.000000013623
300.000000013621
300.000000013619
300.000000013618
300.000000013616
300.000000013615
300.000000013614
300.000000013613
300.000000013613
300.000000013613
300.000000013613
300.000000013613
300.000000013613
300.000000013613
300.000000013614
300.000000013615
300.000000013616
300.000000013618
300.000000013619
300.000000013622
300.000000013624
300.000000013627
300.000000013631
300.000000013635
300.000000013642
300.000000013652
300.000000013671
300.00000001371
300.000000013798
300.000000014029
300.000000014691
300.000000016687
300.000000022657
300.000000041345
300.000000010218
300.000000006259
300.000000004811
300.00000000425
300.000000004042
300.000000003964
300.000000003933
300.000000003918
300.000000003909
300.000000003902
300.000000003897
300.000000003893
300.000000003889
300.000000003885
300.000000003882
300.000000003879
300.000000003877
300.000000003875
300.000000003873
300.000000003871
300.00000000387
300.000000003869
300.000000003868
300.000000003867
300.000000003867
300.000000003866
300.000000003866
300.000000003866
300.000000003866
300.000000003867
300.000000003868
300.000000003869
300.00000000387
300.000000003871
300.000000003873
300.000000003875
300.000000003878
300.000000003881
300.000000003884
300.000000003888
300.000000003893
300.000000003899
300.000000003907
300.000000003921
300.000000003947
300.000000004013
300.000000004195
300.000000004733
300.000000006321
300.000000011418
300.000000003087
300.000000002078
300.00000000172
300.000000001567
300.000000001506
300.000000001482
300.00000000147
300.000000001462
300.000000001456
300.000000001451
300.000000001446
300.000000001442
300.000000001438
300.000000001434
300.000000001431
300.000000001428
300.000000001426
300.000000001424
300.000000001422
300.00000000142
300.000000001419
300.000000001418
300.000000001417
300.000000001416
300.000000001415
300.000000001415
300.000000001415
300.000000001415
300.000000001415
300.000000001416
300.000000001417
300.000000001418
300.000000001419
300.00000000142
300.000000001422
300.000000001424
300.000000001427
300.00000000143
300.000000001433
300.000000001437
300.000000001441
300.000000001445
300.000000001451
300.000000001458
300.000000001469
300.00000000149
300.000000001546
300.000000001693
300.000000002085
300.00000000341
300.000000001232
300.000000001013
300.000000000947
300.000000000903
300.000000000881
300.00000000087
300.000000000863
300.000000000858
300.000000000852
300.000000000847
300.000000000843
300.000000000838
300.000000000835
300.000000000831
300.000000000828
300.000000000825
300.000000000823
300.000000000821
300.000000000819
300.000000000817
300.000000000816
300.000000000815
300.000000000814
300.000000000813
300.000000000812
300.000000000812
300.000000000812
300.000000000812
300.000000000812
300.000000000813
300.000000000813
300.000000000814
300.000000000816
300.000000000817
300.000000000819
300.000000000821
300.000000000824
300.000000000826
300.00000000083
300.000000000833
300.000000000837
300.000000000842
300.000000000847
300.000000000852
300.000000000858
300.000000000869
300.000000000892
300.000000000936
300.000000001008
300.000000001312
300.000000000759
300.000000000747
300.000000000758
300.000000000742
300.00000000073
300.000000000723
300.000000000717
300.000000000712
300.000000000707
300.000000000702
300.000000000697
300.000000000693
300.000000000689
300.000000000686
300.000000000683
300.00000000068
300.000000000677
300.000000000675
300.000000000673
300.000000000672
300.00000000067
300.000000000669
300.000000000668
300.000000000667
300.000000000667
300.000000000667
300.000000000666
300.000000000666
300.000000000667
300.000000000667
300.000000000668
300.000000000669
300.00000000067
300.000000000672
300.000000000674
300.000000000676
300.000000000678
300.000000000681
300.000000000684
300.000000000688
300.000000000692
300.000000000696
300.000000000701
300.000000000706
300.000000000711
300.000000000719
300.000000000733
300.000000000752
300.00000000074
300.000000000773
300.000000000641
300.000000000682
300.000000000713
300.000000000704
300.000000000694
300.000000000688
300.000000000683
300.000000000677
300.000000000672
300.000000000667
300.000000000663
300.000000000659
300.000000000655
300.000000000651
300.000000000648
300.000000000646
300.000000000643
300.000000000641
300.000000000639
300.000000000637
300.000000000636
300.000000000635
300.000000000634
300.000000000633
300.000000000633
300.000000000632
300.000000000632
300.000000000632
300.000000000632
300.000000000633
300.000000000634
300.000000000635
300.000000000636
300.000000000637
300.000000000639
300.000000000641
300.000000000644
300.000000000647
300.00000000065
300.000000000654
300.000000000658
300.000000000662
300.000000000666
300.000000000671
300.000000000677
300.000000000684
300.000000000696
300.000000000708
300.000000000675
300.000000000637
300.000000000612
300.000000000667
300.000000000702
300.000000000695
300.000000000686
300.00000000068
300.000000000675
300.000000000669
300.000000000664
300.000000000659
300.000000000655
300.000000000651
300.000000000647
300.000000000643
300.00000000064
300.000000000637
300.000000000635
300.000000000633
300.000000000631
300.000000000629
300.000000000628
300.000000000627
300.000000000626
300.000000000625
300.000000000625
300.000000000624
300.000000000624
300.000000000624
300.000000000624
300.000000000625
300.000000000626
300.000000000627
300.000000000628
300.000000000629
300.000000000631
300.000000000633
300.000000000636
300.000000000639
300.000000000642
300.000000000646
300.00000000065
300.000000000654
300.000000000658
300.000000000663
300.000000000669
300.000000000676
300.000000000688
300.000000000698
300.00000000066
300.000000000604
300.000000000606
300.000000000664
300.0000000007
300.000000000693
300.000000000684
300.000000000678
300.000000000673
300.000000000667
300.000000000662
300.000000000657
300.000000000653
300.000000000648
300.000000000645
300.000000000641
300.000000000638
300.000000000635
300.000000000633
300.000000000631
300.000000000629
300.000000000627
300.000000000626
300.000000000625
300.000000000624
300.000000000623
300.000000000623
300.000000000622
300.000000000622
300.000000000622
300.000000000623
300.000000000623
300.000000000624
300.000000000625
300.000000000626
300.000000000627
300.000000000629
300.000000000631
300.000000000634
300.000000000637
300.00000000064
300.000000000644
300.000000000648
300.000000000652
300.000000000657
300.000000000661
300.000000000667
300.000000000674
300.000000000686
300.000000000696
300.000000000657
300.000000000597
300.000000000605
300.000000000664
300.0000000007
300.000000000693
300.000000000683
300.000000000677
300.000000000672
300.000000000666
300.000000000661
300.000000000656
300.000000000652
300.000000000648
300.000000000644
300.00000000064
300.000000000637
300.000000000634
300.000000000632
300.00000000063
300.000000000628
300.000000000627
300.000000000625
300.000000000624
300.000000000623
300.000000000622
300.000000000622
300.000000000622
300.000000000621
300.000000000622
300.000000000622
300.000000000622
300.000000000623
300.000000000624
300.000000000625
300.000000000627
300.000000000629
300.000000000631
300.000000000633
300.000000000636
300.000000000639
300.000000000643
300.000000000647
300.000000000651
300.000000000656
300.000000000661
300.000000000666
300.000000000674
300.000000000686
300.000000000697
300.000000000658
300.000000000596
300.000000000607
300.000000000666
300.000000000701
300.000000000693
300.000000000683
300.000000000677
300.000000000671
300.000000000666
300.00000000066
300.000000000655
300.000000000651
300.000000000647
300.000000000643
300.000000000639
300.000000000636
300.000000000634
300.000000000631
300.000000000629
300.000000000627
300.000000000626
300.000000000625
300.000000000624
300.000000000623
300.000000000622
300.000000000621
300.000000000621
300.000000000621
300.000000000621
300.000000000621
300.000000000622
300.000000000623
300.000000000624
300.000000000625
300.000000000626
300.000000000628
300.00000000063
300.000000000633
300.000000000635
300.000000000639
300.000000000642
300.000000000646
300.000000000651
300.000000000656
300.000000000661
300.000000000666
300.000000000674
300.000000000687
300.000000000698
300.000000000659
300.000000000598
300.000000000608
300.000000000668
300.000000000703
300.000000000694
300.000000000684
300.000000000677
300.000000000671
300.000000000665
300.00000000066
300.000000000654
300.00000000065
300.000000000646
300.000000000642
300.000000000639
300.000000000636
300.000000000633
300.000000000631
300.000000000629
300.000000000627
300.000000000625
300.000000000624
300.000000000623
300.000000000622
300.000000000621
300.000000000621
300.000000000621
300.00000000062
300.000000000621
300.000000000621
300.000000000621
300.000000000622
300.000000000623
300.000000000624
300.000000000626
300.000000000627
300.000000000629
300.000000000632
300.000000000635
300.000000000638
300.000000000642
300.000000000646
300.00000000065
300.000000000655
300.00000000066
300.000000000666
300.000000000674
300.000000000688
300.000000000699
300.000000000661
300.0000000006
300.000000000611
300.00000000067
300.000000000704
300.000000000695
300.000000000684
300.000000000676
300.00000000067
300.000000000664
300.000000000659
300.000000000653
300.000000000649
300.000000000645
300.000000000641
300.000000000638
300.000000000635
300.000000000632
300.00000000063
300.000000000628
300.000000000626
300.000000000624
300.000000000623
300.000000000622
300.000000000621
300.000000000621
300.00000000062
300.00000000062
300.00000000062
300.00000000062
300.00000000062
300.000000000621
300.000000000621
300.000000000622
300.000000000623
300.000000000625
300.000000000627
300.000000000629
300.000000000631
300.000000000634
300.000000000637
300.000000000641
300.000000000645
300.000000000649
300.000000000654
300.00000000066
300.000000000666
300.000000000675
300.000000000689
300.000000000701
300.000000000664
300.000000000602
300.000000000614
300.000000000673
300.000000000706
300.000000000695
300.000000000684
300.000000000676
300.000000000669
300.000000000663
300.000000000657
300.000000000652
300.000000000647
300.000000000643
300.00000000064
300.000000000636
300.000000000633
300.000000000631
300.000000000629
300.000000000627
300.000000000625
300.000000000624
300.000000000622
300.000000000621
300.000000000621
300.00000000062
300.000000000619
300.000000000619
300.000000000619
300.000000000619
300.000000000619
300.00000000062
300.000000000621
300.000000000621
300.000000000623
300.000000000624
300.000000000626
300.000000000628
300.00000000063
300.000000000633
300.000000000636
300.00000000064
300.000000000644
300.000000000648
300.000000000654
300.00000000066
300.000000000666
300.000000000675
300.00000000069
300.000000000703
300.000000000667
300.000000000605
300.000000000617
300.000000000676
300.000000000708
300.000000000696
300.000000000684
300.000000000675
300.000000000668
300.000000000662
300.000000000656
300.000000000651
300.000000000646
300.000000000642
300.000000000638
300.000000000635
300.000000000632
300.00000000063
300.000000000627
300.000000000626
300.000000000624
300.000000000622
300.000000000621
300.00000000062
300.00000000062
300.000000000619
300.000000000618
300.000000000618
300.000000000618
300.000000000618
300.000000000618
300.000000000619
300.00000000062
300.000000000621
300.000000000622
300.000000000623
300.000000000625
300.000000000627
300.000000000629
300.000000000632
300.000000000635
300.000000000638
300.000000000643
300.000000000647
300.000000000653
300.000000000659
300.000000000666
300.000000000676
300.000000000691
300.000000000706
300.000000000671
300.000000000609
300.000000000621
300.00000000068
300.00000000071
300.000000000697
300.000000000684
300.000000000675
300.000000000667
300.00000000066
300.000000000654
300.000000000649
300.000000000644
300.00000000064
300.000000000636
300.000000000633
300.000000000631
300.000000000628
300.000000000626
300.000000000624
300.000000000623
300.000000000621
300.00000000062
300.000000000619
300.000000000618
300.000000000618
300.000000000617
300.000000000617
300.000000000617
300.000000000617
300.000000000617
300.000000000618
300.000000000619
300.000000000619
300.000000000621
300.000000000622
300.000000000623
300.000000000625