/*--------------------------------*- C++ -*----------------------------------*\
  =========                 |
  \\      /  F ield         | OpenFOAM: The Open Source CFD Toolbox
   \\    /   O peration     | Website:  https://openfoam.org
    \\  /    A nd           | Version:  10
     \\/     M anipulation  |
\*---------------------------------------------------------------------------*/
FoamFile
{
    format      ascii;
    class       volVectorField;
    location    "4.6";
    object      U;
}
// * * * * * * * * * * * * * * * * * * * * * * * * * * * * * * * * * * * * * //

dimensions      [0 1 -1 0 0 0 0];

internalField   nonuniform List<vector> 
2500
(
(-1.6140386869207e-06 -5.37951556833029e-06 9.97208016934727e-25)
(-3.79294631689542e-06 -6.89531076027189e-06 7.59270195801691e-24)
(-3.16305792806307e-06 -7.22910285668237e-06 1.2631759887647e-24)
(-2.28729463747695e-06 -7.30580330483486e-06 7.18842161388553e-25)
(-1.44258485883843e-06 -7.26615446608261e-06 1.95965901042302e-24)
(-9.08399894660442e-07 -7.2168361479135e-06 1.60274988547494e-25)
(-5.70805565281627e-07 -7.17793164341996e-06 2.1891275737743e-25)
(-3.63286556996737e-07 -7.15263240112598e-06 2.20437494988811e-25)
(-2.33978971425089e-07 -7.13812183190576e-06 2.57314474698945e-25)
(-1.48780921523549e-07 -7.13023983818827e-06 8.55761888480383e-24)
(-9.02467286735712e-08 -7.12622944011878e-06 2.76017723918912e-24)
(-4.78786178356667e-08 -7.12422818874464e-06 9.265931046804e-24)
(-1.5806977000493e-08 -7.12321154171606e-06 8.05245193439317e-24)
(9.26905978535012e-09 -7.12267681303839e-06 2.23435535624302e-24)
(2.93698428957648e-08 -7.12237895821943e-06 1.02099615248037e-23)
(4.57350989554245e-08 -7.12219753608759e-06 1.90538612646591e-24)
(5.9179835643641e-08 -7.12209065770615e-06 8.64426332514228e-24)
(7.0267641111077e-08 -7.1220214983974e-06 9.00255786854815e-24)
(7.94148439526818e-08 -7.12199261630973e-06 2.1725745378396e-24)
(8.69420096424062e-08 -7.12197732078832e-06 7.70468672189949e-24)
(9.31068050431172e-08 -7.1219831240534e-06 1.14733420527645e-24)
(9.81262748490472e-08 -7.12199733214174e-06 2.90613344095973e-25)
(1.02189300578074e-07 -7.12202224730632e-06 7.75465147547136e-24)
(1.05461223168121e-07 -7.12205535330543e-06 9.70975421140573e-25)
(1.08092703328284e-07 -7.12209204237548e-06 3.97995268268887e-25)
(1.10237809331509e-07 -7.12213043178324e-06 9.07246095779863e-24)
(1.12044405344385e-07 -7.12217682241485e-06 5.82529857583645e-25)
(1.13653800973616e-07 -7.1222250615364e-06 9.64052659373782e-25)
(1.1522823157599e-07 -7.12227872021089e-06 6.75398755597662e-24)
(1.16932177789284e-07 -7.12233335726705e-06 -9.03595652375778e-26)
(1.18946954445638e-07 -7.12239933594003e-06 3.17808740963436e-25)
(1.21493524504666e-07 -7.12247547200888e-06 -1.0680597195314e-24)
(1.2482937506373e-07 -7.12255776473421e-06 6.32469112376924e-25)
(1.29265599851018e-07 -7.12266435695459e-06 7.21168091217804e-25)
(1.35232008776538e-07 -7.12280643983529e-06 6.23836680162617e-26)
(1.43314061555552e-07 -7.12301490855031e-06 7.05330471432807e-24)
(1.54344649776213e-07 -7.12334527677033e-06 -8.91533879391002e-24)
(1.69590094550674e-07 -7.12391556199321e-06 -9.40848690075367e-25)
(1.9109402108776e-07 -7.12498081389194e-06 -3.77434273170281e-26)
(2.22201456369699e-07 -7.12705522544785e-06 -4.53980272158772e-24)
(2.68793741146057e-07 -7.13114507041029e-06 -9.04879036782164e-24)
(3.41479608773269e-07 -7.13907003325073e-06 -8.73649440732919e-24)
(4.57521520481648e-07 -7.15344965288409e-06 -4.49300461236811e-24)
(6.51526924415739e-07 -7.17839953190367e-06 -9.27586720929076e-24)
(9.75268736916931e-07 -7.21678531746874e-06 -9.17122766916187e-24)
(1.49826188188714e-06 -7.26632730469465e-06 -5.2734502426532e-24)
(2.3387587495e-06 -7.3080054689735e-06 -9.99346193705961e-24)
(3.23005590977598e-06 -7.23249817549848e-06 -8.93272235285449e-24)
(3.8685396185103e-06 -6.88536830967484e-06 -4.46234958520639e-24)
(1.64256766019998e-06 -5.3613575353387e-06 -7.04249636401122e-24)
(-1.42456915398213e-06 -6.93895692470791e-06 9.71225175690339e-25)
(-5.97377248639805e-06 -9.8086120823723e-06 1.79720458583182e-24)
(-5.32451975921604e-06 -1.11549377823007e-05 1.51974614153386e-24)
(-4.08462538330949e-06 -1.13345522464484e-05 1.35978247888022e-24)
(-2.74975819221058e-06 -1.10946704800836e-05 2.65361831999721e-24)
(-1.85186913449583e-06 -1.0820833331375e-05 -1.65130630460703e-24)
(-1.26009629421114e-06 -1.06254936525641e-05 2.69316290025934e-25)
(-8.77470432509128e-07 -1.0503177378953e-05 1.44593433409754e-25)
(-6.25805899470758e-07 -1.04322322958121e-05 -2.51145397017366e-24)
(-4.50408008185094e-07 -1.03919970894195e-05 1.72228482737238e-24)
(-3.22799926565527e-07 -1.03691668674575e-05 5.69465088969511e-24)
(-2.25748182643871e-07 -1.0355804373595e-05 6.59147499214214e-24)
(-1.49252405209493e-07 -1.03475445765402e-05 2.23512761945222e-24)
(-8.7454872687508e-08 -1.03421065013004e-05 3.87431908220811e-24)
(-3.65689636437388e-08 -1.03382914988332e-05 2.18125033486401e-24)
(5.86952082979391e-09 -1.03354894076743e-05 2.01642886127844e-24)
(4.15812921595981e-08 -1.03333524534071e-05 5.69850678468576e-24)
(7.18112178420303e-08 -1.03316934180812e-05 3.47352055505809e-24)
(9.75093610519785e-08 -1.03303982570613e-05 2.09364164423426e-24)
(1.19432797740636e-07 -1.03293738734986e-05 1.98113846944091e-24)
(1.38198968391565e-07 -1.0328584075456e-05 8.70799296599901e-25)
(1.54339541273431e-07 -1.03279782294069e-05 -2.13808991152322e-24)
(1.68314928967537e-07 -1.03275516662307e-05 4.34823708949658e-24)
(1.8054810329198e-07 -1.03272633466277e-05 9.35327222190259e-25)
(1.9142554432167e-07 -1.03271107703028e-05 -1.85174687536371e-24)
(2.01325012742695e-07 -1.03270901530394e-05 4.67286059878023e-24)
(2.10623320331145e-07 -1.03271981481508e-05 -1.14144116592371e-24)
(2.19691532756115e-07 -1.03274373665931e-05 2.78158549077307e-24)
(2.28931372784106e-07 -1.0327810092086e-05 3.18318948796522e-24)
(2.38759990530695e-07 -1.03283335498653e-05 -2.56448752022543e-24)
(2.49637223029465e-07 -1.03290333448153e-05 1.77305421603483e-24)
(2.62112324237511e-07 -1.03299385537389e-05 -4.01102804353096e-24)
(2.76806475288709e-07 -1.03310888989131e-05 3.22864086920844e-24)
(2.94465841077363e-07 -1.0332573223069e-05 3.30934868156035e-24)
(3.16074183441129e-07 -1.03345166763002e-05 -2.30438309495484e-24)
(3.42915397258646e-07 -1.03371173037766e-05 3.17164286399376e-24)
(3.76747132846049e-07 -1.03407172979755e-05 -4.38489528108532e-24)
(4.20085718653203e-07 -1.03459578330443e-05 -7.15459273969582e-25)
(4.76758797504036e-07 -1.03540537613716e-05 1.50556290616269e-24)
(5.52716244339667e-07 -1.03673340247507e-05 -1.17443374096106e-23)
(6.5799969980356e-07 -1.03901517026327e-05 -7.73260253191977e-24)
(8.10120814441038e-07 -1.04303995574285e-05 -6.98821600532503e-24)
(1.03734227444442e-06 -1.05012354733235e-05 -1.1101480567519e-23)
(1.39532600868722e-06 -1.06233916427976e-05 -7.23426651772212e-24)
(1.96202099148947e-06 -1.08191143104364e-05 -7.52310786121069e-24)
(2.83970357958057e-06 -1.10969300300472e-05 -1.29408924316539e-23)
(4.16745807340038e-06 -1.13483603598648e-05 -7.67320539762359e-24)
(5.44002901940729e-06 -1.11734965944551e-05 -7.30239892212866e-24)
(6.11889031515838e-06 -9.78198125488539e-06 -1.07939272078664e-23)
(1.48573454299535e-06 -6.86341526011405e-06 -4.71615489631259e-24)
(-5.55707384935593e-08 -7.11264027613279e-08 3.9352912953825e-25)
(-4.74712396012155e-06 -2.03370107266333e-06 -6.04213660413129e-24)
(-4.59410431705289e-06 -4.29324428330268e-06 9.16577092728698e-25)
(-3.86960639466264e-06 -4.64233731122107e-06 5.2901282536907e-25)
(-2.84674603416516e-06 -4.29973765218432e-06 -5.68393242623034e-24)
(-2.08618824837794e-06 -3.87763922154939e-06 -7.77414427526099e-24)
(-1.53915449422384e-06 -3.57442729900795e-06 -1.19020491143516e-25)
(-1.15359320549571e-06 -3.38317312600009e-06 -2.3121780947042e-25)
(-8.79703362780878e-07 -3.26941131252601e-06 -8.42294296698688e-24)
(-6.75551217764189e-07 -3.20175005931154e-06 -5.80101008732254e-24)
(-5.18757727453561e-07 -3.16053022667895e-06 1.00684960618068e-23)
(-3.94598817384352e-07 -3.13428986367876e-06 3.78914886085467e-24)
(-2.93825997472767e-07 -3.1166923199789e-06 -5.47913523187209e-24)
(-2.10605833202045e-07 -3.1042707963562e-06 4.73554986142511e-24)
(-1.40896367110032e-07 -3.09510008855273e-06 -5.61629788754614e-24)
(-8.18849660704225e-08 -3.08809927672951e-06 1.23105297801493e-24)
(-3.15103722234791e-08 -3.08261278733129e-06 2.66262269569459e-24)
(1.17725418256836e-08 -3.07825902768052e-06 -4.73253253211418e-24)
(4.91791890092764e-08 -3.07477190489191e-06 7.60707231848551e-25)
(8.16875451058091e-08 -3.07197728074624e-06 -6.10924182415448e-24)
(1.10119787311455e-07 -3.06976109922758e-06 -1.68461352912622e-25)
(1.35176830994564e-07 -3.06803531338287e-06 -7.54341889939599e-24)
(1.57487533713198e-07 -3.06674831456772e-06 1.61736191612286e-24)
(1.77628499145345e-07 -3.06584563305229e-06 4.26353612254653e-25)
(1.96118437430655e-07 -3.06530619338149e-06 -6.23924889479142e-24)
(2.13480834818382e-07 -3.06512401887423e-06 1.29990990434335e-24)
(2.30229751145278e-07 -3.0652890193255e-06 -5.96797054796337e-24)
(2.46875993906362e-07 -3.06580267953518e-06 7.29255172028437e-24)
(2.63962434417627e-07 -3.06669331109456e-06 1.16190538896658e-24)
(2.82061873510023e-07 -3.06799195888224e-06 -7.66375971764398e-24)
(3.01807454186186e-07 -3.06975297028218e-06 5.90332454242539e-24)
(3.23922986594099e-07 -3.07205825269274e-06 -9.03293397993638e-24)
(3.49239340619046e-07 -3.07501645885869e-06 8.41694211296751e-24)
(3.78746660371169e-07 -3.07879767234758e-06 8.4449379483321e-24)
(4.13696148552313e-07 -3.08367801221374e-06 -7.38551806844547e-24)
(4.55679636514699e-07 -3.09005556901191e-06 3.76585256732588e-25)
(5.06794311097282e-07 -3.09857481835957e-06 -1.48681202472262e-24)
(5.69896307483437e-07 -3.11034416099983e-06 3.85563282391072e-26)
(6.49071453102776e-07 -3.12731247063155e-06 6.96668133989743e-24)
(7.50235581415031e-07 -3.15302034275842e-06 -1.31759194925284e-23)
(8.82656965730389e-07 -3.19384912479883e-06 -4.98012737115757e-24)
(1.06136440472564e-06 -3.26132780141165e-06 -4.17989334933666e-24)
(1.30853165725205e-06 -3.37524294198435e-06 -1.24739330051946e-23)
(1.66727520991063e-06 -3.5673868891492e-06 -4.29887829761437e-24)
(2.18708835943367e-06 -3.87345241856625e-06 -4.68248242270731e-24)
(2.92569043012404e-06 -4.30511292098249e-06 -1.53284890023363e-23)
(3.94001387945714e-06 -4.67030536277206e-06 -4.56636853625141e-24)
(4.69729308955466e-06 -4.33347616677504e-06 -4.61835516457458e-24)
(4.90534461938505e-06 -2.00949670151741e-06 -1.38701649960033e-23)
(1.40308576146322e-07 4.56849298632383e-08 -2.66816382565271e-24)
(2.6891678173292e-07 5.23128551125885e-06 7.74123972996849e-25)
(-2.59458544331648e-06 4.26796309372303e-06 -3.68062264355151e-24)
(-2.91624455492539e-06 9.55665118581507e-07 1.28650792417173e-24)
(-2.85522932427471e-06 1.43639469421221e-07 5.12463585349695e-25)
(-2.38639653509424e-06 3.22475542421851e-07 -1.93547180383892e-24)
(-1.93755336753824e-06 7.18043998432448e-07 -2.06777191589229e-24)
(-1.5524186649903e-06 1.03562564316235e-06 4.01349228331192e-25)
(-1.23988450668992e-06 1.25061909270985e-06 4.01384208428073e-25)
(-9.944231387261e-07 1.38738682977737e-06 -2.31498139588826e-24)
(-7.97404744762355e-07 1.47450263195929e-06 -3.1029845267468e-24)
(-6.38312612335785e-07 1.53139955494445e-06 4.49428134770385e-24)
(-5.08059181634735e-07 1.56997248110121e-06 7.52846772193472e-25)
(-3.99952614993394e-07 1.59720311930987e-06 -3.19146517929174e-24)
(-3.09265121883011e-07 1.61716625758503e-06 2.8009561048256e-24)
(-2.32390171006856e-07 1.63228802326184e-06 -3.18429689531044e-24)
(-1.66655289452257e-07 1.64405718561185e-06 1.31217521692484e-24)
(-1.10015416917695e-07 1.65338125642092e-06 -4.73971796416186e-27)
(-6.08785238071715e-08 1.6608580016744e-06 -1.98913785170647e-24)
(-1.79672899811773e-08 1.66689143906212e-06 1.40499489568598e-24)
(1.97651362796137e-08 1.67174779636108e-06 -2.73622900573293e-24)
(5.32059671869152e-08 1.67561736645968e-06 7.6015519573458e-25)
(8.31215420481175e-08 1.67864594417642e-06 -1.94606852336581e-24)
(1.10197119606555e-07 1.68092591697667e-06 -5.50506991541659e-25)
(1.35069698039712e-07 1.68252739787495e-06 7.68342146057755e-25)
(1.58320232600807e-07 1.68348967709978e-06 -1.7472097414641e-24)
(1.80519990654978e-07 1.68383512726195e-06 -2.25898704851746e-25)
(2.0224201911338e-07 1.68356918758774e-06 -1.26734579484376e-24)
(2.24048959172223e-07 1.68267752586981e-06 2.15213274658141e-24)
(2.46537039934283e-07 1.68112810078203e-06 -7.43932420687268e-25)
(2.70345844071742e-07 1.67885869330513e-06 -2.50299221389135e-24)
(2.96166924571864e-07 1.67577973200391e-06 1.45387044249724e-24)
(3.24786396004369e-07 1.67175697241095e-06 -3.90953610619576e-24)
(3.57110864182337e-07 1.66661511214381e-06 2.69995384639477e-24)
(3.94202791750169e-07 1.66008067178839e-06 2.81646802853248e-24)
(4.37367769903812e-07 1.65174321250593e-06 -2.47503962063562e-24)
(4.88233154869733e-07 1.64099979552343e-06 -1.33834039986391e-24)
(5.48879063558909e-07 1.62692462608919e-06 1.42003401544969e-24)
(6.22006553376001e-07 1.60804171285779e-06 -1.16996307381996e-25)
(7.11234365075135e-07 1.58189887802721e-06 2.43906863569549e-24)
(8.21338605638708e-07 1.54436108149888e-06 -4.63520786413591e-24)
(9.58964119939796e-07 1.48838343416714e-06 -7.59715972364794e-25)
(1.13341191720087e-06 1.40195050080692e-06 2.98635410275535e-25)
(1.35490320161972e-06 1.2653381034094e-06 -3.79322742368627e-24)
(1.64315984089349e-06 1.04919518152457e-06 1.23806591075209e-25)
(2.00313776017918e-06 7.26936933896057e-07 1.66819585040116e-25)
(2.43103454278147e-06 3.16130595285543e-07 -5.43020059339552e-24)
(2.88962021708862e-06 1.0211565052798e-07 2.14001239866156e-25)
(2.97305936863424e-06 8.87530650433305e-07 3.7756851560643e-26)
(2.71127771084637e-06 4.27812652350539e-06 -4.59935157195357e-24)
(-1.95079400382275e-07 5.34259753150559e-06 1.19082454667644e-24)
(1.10693982779634e-07 7.82243040301136e-06 1.28532749284933e-24)
(-9.1659389868503e-07 7.19003170984086e-06 2.12576673308291e-24)
(-1.53285066933703e-06 3.17784811896582e-06 1.76531157654987e-24)
(-1.90035328346332e-06 1.9016575820426e-06 5.67261168246648e-25)
(-1.86498207517869e-06 1.84463544739685e-06 3.21429535293723e-26)
(-1.67922246223116e-06 2.14736828710347e-06 6.47820337361368e-25)
(-1.44788557966674e-06 2.44275171541201e-06 6.84927580036152e-25)
(-1.21750358839489e-06 2.66342884411098e-06 7.80286736020599e-25)
(-1.01524623606937e-06 2.81473696225222e-06 8.70746709422188e-25)
(-8.40715386558123e-07 2.91720911675461e-06 1.12968676939538e-24)
(-6.93310394132864e-07 2.98770342978044e-06 1.94668516152259e-24)
(-5.69091822611433e-07 3.03752498157835e-06 1.96322205082538e-24)
(-4.6400779546981e-07 3.07381623553607e-06 1.08519262799225e-24)
(-3.74683053415354e-07 3.10103515989621e-06 1.33134774055934e-24)
(-2.9820811557241e-07 3.12199191198078e-06 1.00441589795704e-24)
(-2.32285616969e-07 3.13846342675986e-06 1.67417300284729e-24)
(-1.75069814422584e-07 3.15161042593621e-06 2.01052764687999e-24)
(-1.25065784338699e-07 3.16220324595903e-06 1.96517751891461e-24)
(-8.10582275081662e-08 3.17077610338522e-06 2.03869753456036e-24)
(-4.20319481138227e-08 3.17768755818452e-06 1.57941748187913e-24)
(-7.10409482891736e-09 3.18320013683037e-06 1.52501729406853e-24)
(2.44788466302077e-08 3.18750266248086e-06 8.97416287784228e-25)
(5.33997604997737e-08 3.19073280374846e-06 1.50611041526154e-24)
(8.02984565775945e-08 3.19298355733656e-06 1.17610054792591e-24)
(1.05757666434434e-07 3.19430700621376e-06 9.33347259009781e-25)
(1.30354007497894e-07 3.19474035686227e-06 1.58251635539512e-24)
(1.5465408250619e-07 3.19428749063437e-06 6.90107389248412e-25)
(1.79230539682678e-07 3.19291986969099e-06 1.6746835982682e-25)
(2.04678546597264e-07 3.19060220987712e-06 6.43838438624531e-25)
(2.31632634858718e-07 3.18724185010788e-06 2.32404794059665e-26)
(2.60789003173262e-07 3.18271128988319e-06 -2.4278099804258e-25)
(2.92918387182989e-07 3.17683911153687e-06 -1.29113477769842e-24)
(3.28910278697694e-07 3.1693732737967e-06 -1.19208815071322e-25)
(3.69802941817205e-07 3.15994210343461e-06 8.42832214207067e-26)
(4.16834757195356e-07 3.14801717513622e-06 -7.45448101239581e-26)
(4.71512222550084e-07 3.13281856127715e-06 3.80445423654936e-25)
(5.35708855872515e-07 3.11317767257252e-06 -2.41496980778009e-25)
(6.11734979808185e-07 3.08732607868285e-06 -4.80405508572689e-25)
(7.02485348636678e-07 3.05244283977252e-06 3.39596308856801e-25)
(8.11345984204042e-07 3.00402351473105e-06 -4.74324945679349e-25)
(9.42254177702242e-07 2.93485966146171e-06 -9.18836765405337e-25)
(1.09925837126958e-06 2.83354297148893e-06 -5.73325680078438e-25)
(1.28247958613718e-06 2.68292114581282e-06 2.5960970861696e-26)
(1.49305987669273e-06 2.46151016313912e-06 -5.87181793579263e-25)
(1.70273090741172e-06 2.1608985810197e-06 -5.49144883538432e-25)
(1.86921590124354e-06 1.83920197053985e-06 -5.26302248363888e-25)
(1.89264665599308e-06 1.85114391978334e-06 -5.74883713971668e-25)
(1.53763473005944e-06 3.08721773022763e-06 -5.37806083985281e-25)
(9.68728682638698e-07 7.18862872608241e-06 -1.31666427398659e-25)
(-7.12634689595427e-08 7.9213729783959e-06 2.34349905955609e-25)
(-2.57389839127253e-08 8.29420356491056e-06 1.28161915639614e-24)
(-2.16976306177798e-08 7.57981626190824e-06 4.39423469807472e-24)
(-7.52947032886749e-07 3.38743285756156e-06 1.66598784162229e-24)
(-1.2735070660296e-06 1.84245889846659e-06 5.5830076804269e-25)
(-1.46599373397364e-06 1.61755916715061e-06 9.88933346922801e-25)
(-1.43645705017696e-06 1.83699904533069e-06 1.97644339957389e-24)
(-1.31169864239077e-06 2.10583648343592e-06 6.82732631416793e-25)
(-1.14722926897685e-06 2.32520450171745e-06 7.53219526705979e-25)
(-9.85656946850308e-07 2.48514996282953e-06 1.96017476828356e-24)
(-8.36527916722387e-07 2.59873796638408e-06 2.48384955715962e-24)
(-7.05359005973137e-07 2.67995812493762e-06 3.23319198696266e-25)
(-5.91859865011277e-07 2.73915366338153e-06 1.85590953791153e-24)
(-4.94091136165269e-07 2.78329376943636e-06 2.67525017005349e-24)
(-4.09904469678361e-07 2.81698645884227e-06 1.96247026057586e-25)
(-3.37132675757903e-07 2.84324246915394e-06 2.56307885118626e-24)
(-2.73915401347091e-07 2.8640549575329e-06 1.49945320927689e-24)
(-2.18674908315399e-07 2.88075551946144e-06 2.21726445436612e-24)
(-1.70091804199525e-07 2.89425853763779e-06 3.11886596666328e-24)
(-1.27059566855113e-07 2.90519522100531e-06 1.91129852145691e-24)
(-8.86361987603963e-08 2.91401463741918e-06 2.94933130316224e-24)
(-5.39962984273414e-08 2.92104320471307e-06 1.53761469796098e-24)
(-2.24195550160813e-08 2.92650335706469e-06 2.03088286180696e-24)
(6.74571066898234e-09 2.93057873983783e-06 1.80239615933715e-24)
(3.41089493828826e-08 2.9333799789751e-06 1.12595895671001e-24)
(6.02386943700621e-08 2.93497598764743e-06 2.16571115065279e-24)
(8.5686234587103e-08 2.93541267350777e-06 1.96215901837994e-24)
(1.10995004399047e-07 2.93469476188359e-06 1.59511458912128e-24)
(1.36718926560439e-07 2.93279707503483e-06 -7.71511499432894e-25)
(1.63429882694409e-07 2.92964438651305e-06 9.46612680352423e-25)
(1.91734429376633e-07 2.92514744601078e-06 1.1821790626145e-24)
(2.22299090010189e-07 2.91913748618583e-06 -1.06413025705178e-24)
(2.55850694412733e-07 2.91139354106277e-06 2.32084582018574e-25)
(2.93219932649839e-07 2.90160869025272e-06 -1.3994891134404e-24)
(3.35371582479206e-07 2.88933983895173e-06 -1.32014294252389e-24)
(3.83423954019941e-07 2.87393331200999e-06 1.19955921549375e-24)
(4.38698133686267e-07 2.85449218101599e-06 9.32231485635615e-25)
(5.02790310430686e-07 2.82967220909116e-06 -6.3185961823071e-25)
(5.775582605161e-07 2.79749866725107e-06 -5.81253159023034e-25)
(6.65139549801862e-07 2.75495062526657e-06 -9.40102011304176e-25)
(7.67659894324896e-07 2.69738174910206e-06 1.44672571269251e-24)
(8.86900842220016e-07 2.61777060362339e-06 -7.63114239140602e-25)
(1.02318446758559e-06 2.5057087762841e-06 -6.75964470782289e-25)
(1.17036409291831e-06 2.34692269105174e-06 1.58044678369357e-24)
(1.31930241431272e-06 2.12744161974825e-06 -6.16462219234882e-25)
(1.42585165580169e-06 1.85354048346271e-06 -6.17767955300954e-25)
(1.4381197989661e-06 1.61321049682135e-06 1.67224881036012e-24)
(1.23295227302085e-06 1.78646643450268e-06 -7.05144709433843e-25)
(7.19264841646876e-07 3.28202530597688e-06 -6.38218510891822e-25)
(1.80019492161496e-08 7.5673107677357e-06 2.37094412934383e-24)
(3.31131679187536e-08 8.38119243344721e-06 -1.00409014426494e-25)
(-2.42137060914005e-08 7.68523083879411e-06 9.09515505488022e-25)
(2.88333952877387e-07 6.84004328022723e-06 3.94583362627067e-24)
(-4.30968130618866e-07 2.78921002966278e-06 1.15675356166151e-24)
(-9.31674601880504e-07 1.13265632130248e-06 3.56055535336279e-25)
(-1.19815423732468e-06 8.10190919297178e-07 5.68962153475018e-25)
(-1.24014095942115e-06 9.6710762052634e-07 1.14304774680752e-24)
(-1.17906607399206e-06 1.21155168225465e-06 4.25252388922339e-25)
(-1.061769805113e-06 1.42579381896774e-06 4.78822665193866e-25)
(-9.33573810918323e-07 1.58981766579556e-06 1.36243809218111e-24)
(-8.07732308820826e-07 1.71076136032882e-06 2.08916181547881e-24)
(-6.92774268226645e-07 1.79996353987029e-06 2.20389353081454e-25)
(-5.90707088432142e-07 1.86661683344267e-06 1.84805646932335e-24)
(-5.011545977877e-07 1.91731103349245e-06 2.35943656784716e-24)
(-4.23000904979404e-07 1.95658327083849e-06 3.34641179059158e-25)
(-3.54749617610109e-07 1.98751900580123e-06 2.28628941805892e-24)
(-2.9497937118846e-07 2.01223168061434e-06 1.0456817281225e-24)
(-2.42402859372095e-07 2.03216120003625e-06 2.10414591550014e-24)
(-1.95887032386583e-07 2.04832224077415e-06 2.70782391675249e-24)
(-1.54457710440187e-07 2.06142348557707e-06 1.30995734933323e-24)
(-1.17260326434311e-07 2.0719926185777e-06 2.48185274897109e-24)
(-8.35361556493757e-08 2.08039168484097e-06 1.03461840959708e-24)
(-5.26144153101604e-08 2.0869003537521e-06 1.36111451036671e-24)
(-2.38795378351488e-08 2.0917185403117e-06 1.7252995279847e-24)
(3.24059773092337e-09 2.09498299700041e-06 7.60568701874312e-25)
(2.92865477847587e-08 2.09678426673784e-06 1.42559307466803e-24)
(5.47861111493675e-08 2.09716343424425e-06 1.93344173255601e-24)
(8.0253409185537e-08 2.09613368867837e-06 9.63257542170999e-25)
(1.06208947761367e-07 2.09365818390767e-06 -3.68818267717642e-25)
(1.33202497113862e-07 2.08966170540348e-06 1.27400611661269e-24)
(1.61809549265097e-07 2.08402037075884e-06 8.22232462940849e-25)
(1.92645824929305e-07 2.07654232884898e-06 -5.74649864436089e-25)
(2.26391022006356e-07 2.06697776985265e-06 1.56867604967048e-25)
(2.63813300634255e-07 2.05495951824914e-06 -8.9901873319622e-25)
(3.05773020712586e-07 2.03997838072423e-06 -7.97511579816236e-25)
(3.53258611261483e-07 2.0213092882263e-06 7.57090555104394e-25)
(4.07401729456978e-07 1.99795242547051e-06 1.23859680952895e-24)
(4.69493255495214e-07 1.96846919160238e-06 -1.00010647752694e-24)
(5.40946419770337e-07 1.93076267610081e-06 -4.27457946877437e-25)
(6.23215344235196e-07 1.88175286544226e-06 -5.05519000262119e-25)
(7.17380721106256e-07 1.81686353162077e-06 1.07207560307988e-24)
(8.2364308729125e-07 1.72949250003796e-06 -1.12510298450861e-24)
(9.39973130882944e-07 1.61040774545488e-06 -1.10829050218616e-24)
(1.05715863659513e-06 1.44803740454556e-06 1.01608841450362e-24)
(1.16216391959118e-06 1.23441139510173e-06 -1.08420243216731e-24)
(1.20795770874484e-06 9.8537002431738e-07 -1.09111786596597e-24)
(1.15097656356721e-06 8.06329689050198e-07 1.07777421217584e-24)
(8.72413317530794e-07 1.07179751655322e-06 -1.2947866486112e-24)
(3.7713918946622e-07 2.67178592318832e-06 -1.37985377972841e-24)
(-3.24782058482555e-07 6.81140805961241e-06 1.76041151004886e-24)
(1.36842442422684e-08 7.75514167336467e-06 -8.90645951548131e-25)
(4.07339192188756e-08 6.83050526060533e-06 4.71208084061239e-25)
(2.99198603324113e-07 5.97318527373455e-06 2.01496984357233e-24)
(-3.37569468892004e-07 2.15582735399225e-06 6.02369320932044e-25)
(-7.53069666026595e-07 4.61972496605359e-07 1.57959207879484e-25)
(-1.01584032251229e-06 8.0756985422084e-08 -3.77132505370706e-26)
(-1.08304487131022e-06 1.88134254659387e-07 5.83353338461327e-25)
(-1.05831363368761e-06 4.08228120364423e-07 2.19983266204262e-25)
(-9.74339586428485e-07 6.13303039782602e-07 2.50799269492133e-25)
(-8.72684951210642e-07 7.76972874517226e-07 7.65659735253468e-25)
(-7.66947176208463e-07 9.01671805006847e-07 1.02012129559182e-24)
(-6.66747609430805e-07 9.96214504603352e-07 4.14802737575757e-26)
(-5.75466558369884e-07 1.06848320937659e-06 7.90650657996464e-25)
(-4.93847038927374e-07 1.1244525563232e-06 1.12119511617164e-24)
(-4.21603975464428e-07 1.1684243982657e-06 1.43842205817032e-25)
(-3.57829665560009e-07 1.20343372968161e-06 1.08219973988626e-24)
(-3.01508052070827e-07 1.23160583093739e-06 5.30139352782336e-25)
(-2.51628209803059e-07 1.25444202055147e-06 9.42949410735144e-25)
(-2.07250837577735e-07 1.27301607430733e-06 1.29960936310696e-24)
(-1.67525378415518e-07 1.28809804769951e-06 6.71374208465302e-25)
(-1.31695264934707e-07 1.30026005783113e-06 1.18931805129768e-24)
(-9.90721652150527e-08 1.30991938628494e-06 5.30208096696016e-25)
(-6.90294405877674e-08 1.31738122458111e-06 7.47737162974191e-25)
(-4.09987150960557e-08 1.32286902126093e-06 8.04182922971156e-25)
(-1.4437012305566e-08 1.32653503909692e-06 3.87341695374695e-25)
(1.11644050390966e-08 1.32849002753688e-06 7.45201307449014e-25)
(3.63026164046108e-08 1.32878017849131e-06 8.75188790153902e-25)
(6.14669930557203e-08 1.32741251483576e-06 5.35934685053672e-25)
(8.71547301461955e-08 1.32435023868138e-06 -1.99953128819861e-25)
(1.13881718526222e-07 1.31951713926525e-06 5.28240948960083e-25)
(1.42183736850269e-07 1.31275916852364e-06 4.64337431663282e-25)
(1.72647508556681e-07 1.30386417954297e-06 -2.80816445951824e-25)
(2.05893080823754e-07 1.29255205771589e-06 1.5398492770878e-25)
(2.42610429343432e-07 1.27842007158194e-06 -4.8289880127161e-25)
(2.83574391637994e-07 1.26089677999837e-06 -4.53189262186393e-25)
(3.29636639240345e-07 1.23922574090855e-06 4.37944349827353e-25)
(3.81736541111387e-07 1.21232899127327e-06 5.13060728935121e-25)
(4.40882976583867e-07 1.1787279792496e-06 -3.78185980190549e-25)
(5.08077850690057e-07 1.1363097428712e-06 -2.16485553098468e-25)
(5.84184390270653e-07 1.08205969874341e-06 -2.32071122901401e-25)
(6.69445852213336e-07 1.01165216488064e-06 1.04278530671326e-24)
(7.62941449869512e-07 9.19127782146128e-07 -3.99112302584108e-25)
(8.61251390328658e-07 7.96615805585725e-07 -4.01396216506692e-25)
(9.54102974090264e-07 6.35100266145502e-07 9.10728240262696e-25)
(1.02806451322534e-06 4.31389161414838e-07 -3.96772589112362e-25)
(1.03994807576115e-06 2.07168714795039e-07 -3.92059848407127e-25)
(9.60155835079545e-07 7.66094839511072e-08 9.99047219989982e-25)
(6.8688321475605e-07 3.95814035874464e-07 -4.95615838475621e-25)
(2.77473876065967e-07 2.02660299802961e-06 -4.90276833456335e-25)
(-3.47646987059734e-07 5.92321791777993e-06 1.84539001218897e-24)
(-5.71613143127817e-08 6.87561166353669e-06 -2.53518101037682e-25)
(9.29682620581163e-08 6.12878151322638e-06 2.36308793981953e-25)
(2.0880798520346e-07 5.37160715846856e-06 1.30541743776605e-24)
(-3.19772835184477e-07 1.75133449144672e-06 3.02831773512136e-25)
(-6.46693341755062e-07 4.11929865995374e-08 1.06012652204508e-25)
(-8.79161456251268e-07 -3.83138746546107e-07 3.14514137205207e-25)
(-9.52013960223214e-07 -3.18611150503578e-07 5.49023426675093e-25)
(-9.48601801812208e-07 -1.23791916846446e-07 1.31873449804048e-25)
(-8.88910099136826e-07 6.87035858448966e-08 1.43742880829076e-25)
(-8.0853234928683e-07 2.28347872577584e-07 5.49614198924058e-25)
(-7.2001159826788e-07 3.53752576468174e-07 6.47304201595374e-25)
(-6.33005721620793e-07 4.51338244666398e-07 -1.71896661923297e-25)
(-5.51665813636362e-07 5.2757405358249e-07 2.87697983543706e-25)
(-4.77518035333184e-07 5.87651971995932e-07 7.3480857980832e-25)
(-4.10925470368727e-07 6.35510190860815e-07 -1.79183621060842e-25)
(-3.51481797358433e-07 6.74011469046967e-07 7.14939492783318e-25)
(-2.98532017025307e-07 7.05225245455456e-07 2.46709861873826e-25)
(-2.51318603248031e-07 7.30668721252479e-07 3.93039347949072e-25)
(-2.09079813958299e-07 7.51431522629824e-07 8.22274101859285e-25)
(-1.71097634018979e-07 7.68332860688411e-07 3.36786928987863e-25)
(-1.36700333687796e-07 7.81959816320421e-07 7.96306467711205e-25)
(-1.0526978574814e-07 7.92780669053844e-07 2.76589971752557e-25)
(-7.62384659987347e-08 8.01115233142727e-07 6.0215844869533e-25)
(-4.90736141136634e-08 8.07213853398957e-07 3.34573011242764e-25)
(-2.32662161747972e-08 8.11245056084329e-07 1.86062449642715e-25)
(1.66379652496575e-09 8.13319778315026e-07 5.68898084220485e-25)
(2.6182953358102e-08 8.13499169466755e-07 3.87304608885606e-25)
(5.07558723254941e-08 8.11794975702583e-07 3.70390939268205e-25)
(7.58546198398588e-08 8.08163338585468e-07 -3.51078045896126e-25)
(1.01963364872223e-07 8.02509872524768e-07 1.91014985397332e-25)
(1.29583074890321e-07 7.94679840664452e-07 4.65115613899693e-25)
(1.59255505294534e-07 7.84440088130266e-07 -3.67013673251128e-25)
(1.91554242218478e-07 7.71471938767483e-07 3.36545902806173e-25)
(2.27098174094647e-07 7.5535654186736e-07 -4.33926187201883e-25)
(2.66565450699751e-07 7.35490088025676e-07 -4.78504751286351e-25)
(3.10680538287887e-07 7.11080162847187e-07 4.82251015529653e-25)
(3.60202693483685e-07 6.81033446967577e-07 2.09698106128498e-25)
(4.15882966782813e-07 6.43858513905143e-07 -1.27467174639408e-25)
(4.78359435684449e-07 5.97515549771432e-07 -1.06275379498277e-25)
(5.47998408403006e-07 5.39161864074895e-07 -2.93740527298403e-25)
(6.24397422308351e-07 4.64865178741258e-07 6.09420823076881e-25)
(7.05868512350041e-07 3.69456087826446e-07 -1.00113093614824e-25)
(7.88210866272139e-07 2.46536064068835e-07 -9.9241956042761e-26)
(8.61207778596262e-07 8.95116687386859e-08 6.72856830395248e-25)
(9.12496417567481e-07 -1.00981192396309e-07 -1.00148065807505e-25)
(9.05105468009272e-07 -2.99589176277582e-07 -9.2012458572884e-26)