/*--------------------------------*- C++ -*----------------------------------*\
  =========                 |
  \\      /  F ield         | OpenFOAM: The Open Source CFD Toolbox
   \\    /   O peration     | Website:  https://openfoam.org
    \\  /    A nd           | Version:  10
     \\/     M anipulation  |
\*---------------------------------------------------------------------------*/
FoamFile
{
    format      ascii;
    class       volScalarField;
    location    "4.6";
    object      wallHeatFlux;
}
// * * * * * * * * * * * * * * * * * * * * * * * * * * * * * * * * * * * * * //

dimensions      [1 0 -3 0 0 0 0];

internalField   uniform 0;

boundaryField
{
    back
    {
        type            calculated;
        value           uniform 0;
    }
    bottom
    {
        type            calculated;
        value           nonuniform List<scalar> 
50
(
131.189409417753
135.004683794769
139.735635599969
142.474431203072
143.835150803114
144.476370352519
144.767332385471
144.893151950921
144.944557575269
144.964510511173
144.971618303992
144.974044897022
144.974827031998
144.974993480019
144.975005279037
144.974928744323
144.974920220643
144.974875336242
144.974815753222
144.974792815222
144.974774951335
144.974766469509
144.974760519845
144.974761281151
144.974751170587
144.974744931199
144.97474883078
144.97475239536
144.974764440131
144.974774566381
144.974790626477
144.974827556764
144.974838828825
144.97484908104
144.974875588939
144.974895303185
144.974853676032
144.974552484611
144.973664431077
144.970819782324
144.962769717156
144.94132297327
144.887351516089
144.758500760155
144.466381499262
143.828398620858
142.475801010081
139.731042743178
134.944113182314
131.221704960562
)
;
    }
    left
    {
        type            calculated;
        value           uniform 0;
    }
    front
    {
        type            calculated;
        value           uniform 0;
    }
    right
    {
        type            calculated;
        value           uniform 0;
    }
    top
    {
        type            calculated;
        value           uniform 0;
    }
}


// ************************************************************************* //
