/*--------------------------------*- C++ -*----------------------------------*\
  =========                 |
  \\      /  F ield         | OpenFOAM: The Open Source CFD Toolbox
   \\    /   O peration     | Website:  https://openfoam.org
    \\  /    A nd           | Version:  10
     \\/     M anipulation  |
\*---------------------------------------------------------------------------*/
FoamFile
{
    format      ascii;
    class       volScalarField;
    location    "3.6";
    object      alphat;
}
// * * * * * * * * * * * * * * * * * * * * * * * * * * * * * * * * * * * * * //

dimensions      [1 -1 -1 0 0 0 0];

internalField   nonuniform List<scalar> 
2500
(
2.02207126443134e-14
3.89241194134307e-13
1.61696350867338e-12
2.66681084880183e-12
3.40774010501944e-12
3.86042400052735e-12
4.10349052773473e-12
4.21966246716861e-12
4.26966578989986e-12
4.28925373912635e-12
4.29630237626265e-12
4.2986507241218e-12
4.29937935228439e-12
4.29959023215761e-12
4.29964652774167e-12
4.29965954840806e-12
4.2996612105119e-12
4.29966028547821e-12
4.29965898782399e-12
4.29965774680387e-12
4.29965665710793e-12
4.29965572497804e-12
4.29965494073959e-12
4.29965429267144e-12
4.29965378421831e-12
4.29965342365599e-12
4.29965325026821e-12
4.29965326936975e-12
4.29965333601916e-12
4.29965345900369e-12
4.29965372395768e-12
4.2996541078503e-12
4.29965444890756e-12
4.29965386157741e-12
4.29964850910995e-12
4.29962513349051e-12
4.29953943036415e-12
4.29924761115948e-12
4.29831135453567e-12
4.29548055105248e-12
4.28744575840768e-12
4.26616418674127e-12
4.21395003375304e-12
4.09631251510664e-12
3.85536759383842e-12
3.41178042684326e-12
2.68683327430905e-12
1.65008520652356e-12
4.06965095925373e-13
2.19050845091321e-14
1.98197344374237e-12
1.00230285353688e-10
4.25736996728527e-10
7.0418776401961e-10
9.02591601644003e-10
1.02532425286167e-09
1.09214879291383e-09
1.12455760730504e-09
1.13871490084957e-09
1.14434224153693e-09
1.14639608180905e-09
1.14708974232867e-09
1.1473078279343e-09
1.14737179288305e-09
1.14738914088594e-09
1.14739327041787e-09
1.14739388260223e-09
1.14739366495703e-09
1.14739331901617e-09
1.14739298309626e-09
1.14739268725779e-09
1.1473924345127e-09
1.14739222215783e-09
1.14739204685874e-09
1.1473919089651e-09
1.14739181180038e-09
1.14739176644065e-09
1.14739176967754e-09
1.14739178375009e-09
1.14739181927577e-09
1.14739189289129e-09
1.14739199695822e-09
1.14739207741637e-09
1.14739185278147e-09
1.1473901472892e-09
1.14738297746404e-09
1.14735706734832e-09
1.14726979812897e-09
1.14699281099872e-09
1.14616459766007e-09
1.1438411202923e-09
1.1377618427854e-09
1.12303531476958e-09
1.090288616813e-09
1.0240958789925e-09
9.03788794848007e-10
7.09484633518798e-10
4.34267468592008e-10
1.04638059936548e-10
2.13739906876169e-12
6.96763967053347e-12
1.78524460451827e-09
5.92209996838238e-07
9.74572424076461e-07
1.24503337613235e-06
1.41248952213049e-06
1.50420510432268e-06
1.54909187812682e-06
1.56891439027918e-06
1.57688657418947e-06
1.57983150296429e-06
1.58083824117876e-06
1.58115863838392e-06
1.58125382001512e-06
1.58128004030791e-06
1.58128646397101e-06
1.58128754646862e-06
1.58128732561948e-06
1.58128688955077e-06
1.58128645442921e-06
1.58128606840707e-06
1.58128573776069e-06
1.58128545968491e-06
1.58128523021879e-06
1.58128504910143e-06
1.58128492103829e-06
1.5812848602805e-06
1.58128485947503e-06
1.58128487520887e-06
1.58128492003272e-06
1.58128501370472e-06
1.58128514252086e-06
1.58128522600263e-06
1.58128483173514e-06
1.58128223444483e-06
1.58127165288295e-06
1.58123380431725e-06
1.58110730143695e-06
1.58070870984511e-06
1.57952576588489e-06
1.57623302354745e-06
1.56768786891017e-06
1.54715969908098e-06
1.50187819764096e-06
1.41098428615591e-06
1.24654756779982e-06
9.81134330466369e-07
6.02774101728214e-07
1.85428748457165e-09
7.40960228352587e-12
1.220823433733e-11
3.15028051487539e-09
1.04160583822342e-06
1.70028888069346e-06
2.16124520413948e-06
2.44513888084006e-06
2.60041835150119e-06
2.67651628155453e-06
2.71022534596801e-06
2.72383900331802e-06
2.72889256346866e-06
2.73062956264114e-06
2.73118566760812e-06
2.73135198786138e-06
2.73139820623205e-06
2.73140971712588e-06
2.73141178194501e-06
2.73141150090448e-06
2.73141081757809e-06
2.73141012111471e-06
2.73140949892839e-06
2.73140896397949e-06
2.73140851300356e-06
2.73140814044157e-06
2.73140784472696e-06
2.73140763228472e-06
2.73140752111569e-06
2.73140750793487e-06
2.73140754352409e-06
2.73140760423339e-06
2.73140774776516e-06
2.73140794474726e-06
2.73140806665984e-06
2.73140737858362e-06
2.73140302640501e-06
2.73138538694964e-06
2.7313221753007e-06
2.73111034099765e-06
2.73044110585632e-06
2.72845014335928e-06
2.72289685081836e-06
2.70846108802928e-06
2.6737345177174e-06
2.59703485764684e-06
2.44280979654437e-06
2.16296532321078e-06
1.70883101781655e-06
1.05559453607909e-06
3.24194353776154e-09
1.27893381975539e-11
1.71087122258175e-11
4.41895018898823e-09
1.45064470369939e-06
2.35209763623705e-06
2.9778507101298e-06
3.36174832112928e-06
3.57155542395309e-06
3.67450776682256e-06
3.72023502517024e-06
3.73876951145391e-06
3.74567951504607e-06
3.7480662152107e-06
3.74883449399014e-06
3.74906572341761e-06
3.74913051999881e-06
3.74914692323882e-06
3.74915004226961e-06
3.74914981016308e-06
3.7491489788163e-06
3.74914810634233e-06
3.74914731978295e-06
3.74914664003141e-06
3.74914606470685e-06
3.749145587909e-06
3.74914520674059e-06
3.7491449269396e-06
3.74914476593402e-06
3.74914473532646e-06
3.7491447698694e-06
3.7491448444724e-06
3.74914501264287e-06
3.74914524124032e-06
3.74914536016639e-06
3.74914438179883e-06
3.74913855128725e-06
3.74911509059397e-06
3.74903090135798e-06
3.74874806968041e-06
3.74785214220565e-06
3.7451800495249e-06
3.73771037126834e-06
3.71825679819676e-06
3.6713874860332e-06
3.56772687154827e-06
3.35896669767721e-06
2.97928117706487e-06
2.36066493897989e-06
1.46499195346748e-06
4.51558962736825e-09
1.77367839115826e-11
2.14456350988712e-11
5.54414302350099e-09
1.80861503236375e-06
2.91657753637383e-06
3.68096228125165e-06
4.14862922788534e-06
4.40413797069107e-06
4.52968607057563e-06
4.58558887727251e-06
4.60832282195902e-06
4.6168317627883e-06
4.61978383648677e-06
4.62073888219175e-06
4.62102801869937e-06
4.62110968992541e-06
4.62113068764303e-06
4.62113490252087e-06
4.62113482725523e-06
4.62113394310232e-06
4.62113297719706e-06
4.62113209645876e-06
4.6211313304438e-06
4.62113067861237e-06
4.62113013536838e-06
4.62112969751993e-06
4.62112936922111e-06
4.62112916545223e-06
4.62112910353018e-06
4.62112912531371e-06
4.62112920617097e-06
4.6211293734162e-06
4.62112959749653e-06
4.62112967011743e-06
4.62112839548411e-06
4.62112131264612e-06
4.62109309471002e-06
4.6209918059373e-06
4.62065088353512e-06
4.61956850669459e-06
4.6163332976028e-06
4.6072719983712e-06
4.58363520929485e-06
4.52661296617669e-06
4.40035787317089e-06
4.14579973258509e-06
3.68204082009699e-06
2.92427058162391e-06
1.82175566953121e-06
5.63632029264907e-09
2.20688195348595e-11
2.51234998218435e-11
6.5028261381758e-09
2.11108716069236e-06
3.38978493573077e-06
4.26792381467674e-06
4.80419468372848e-06
5.09720268873806e-06
5.24137632868584e-06
5.30572151846385e-06
5.33196740749954e-06
5.34182570096497e-06
5.34525972856319e-06
5.34637577836305e-06
5.34671549202409e-06
5.34681216260528e-06
5.34683737511021e-06
5.34684269028365e-06
5.34684285817692e-06
5.34684200117597e-06
5.34684101223848e-06
5.3468400975156e-06
5.34683929590319e-06
5.34683860922764e-06
5.34683803271448e-06
5.34683756330135e-06
5.34683720344365e-06
5.34683696494158e-06
5.34683686361838e-06
5.34683686483998e-06
5.34683693922806e-06
5.34683708227959e-06
5.34683727241596e-06
5.34683726361524e-06
5.34683569023158e-06
5.34682754971466e-06
5.34679549409053e-06
5.34668050504984e-06
5.34629293140463e-06
5.34506016991082e-06
5.3413687106899e-06
5.33101266587707e-06
5.30396192735105e-06
5.23863403698693e-06
5.09386501285334e-06
4.80173357348162e-06
4.2688976282851e-06
3.39647150524293e-06
2.12251325803896e-06
6.58669626037455e-09
2.57171361005666e-11
2.8126117755008e-11
7.29031097484716e-09
2.35845729010335e-06
3.77460465100398e-06
4.74390286075379e-06
5.33514712480054e-06
5.65829398190655e-06
5.81751488192177e-06
5.88872687384913e-06
5.91785223872176e-06
5.92882689160046e-06
5.93266363067133e-06
5.93391569816089e-06
5.93429868998343e-06
5.93440841701233e-06
5.9344374071074e-06
5.93444378649405e-06
5.93444425510824e-06
5.93444348395177e-06
5.93444252595467e-06
5.93444162370567e-06
5.93444082581561e-06
5.93444013689908e-06
5.93443955332808e-06
5.9344390722942e-06
5.93443869487138e-06
5.93443842922331e-06
5.93443828764999e-06
5.93443826001126e-06
5.93443831007991e-06
5.93443841690961e-06
5.93443855275499e-06
5.93443843392572e-06
5.93443656284386e-06
5.93442754375004e-06
5.93439244468693e-06
5.93426668026441e-06
5.93384237329919e-06
5.93249076307505e-06
5.92843727549607e-06
5.91705017837887e-06
5.88727307575801e-06
5.8152991168959e-06
5.65569752664785e-06
5.33344341376681e-06
4.74519089821496e-06
3.78063642445335e-06
2.36834931113844e-06
7.36574087200318e-09
2.86840783226304e-11
3.04918245261568e-11
7.91520504812539e-09
2.55452635615885e-06
4.07848372839117e-06
5.119133933031e-06
5.75347005254914e-06
6.1003344829909e-06
6.27146437944299e-06
6.34814948449559e-06
6.3795886216356e-06
6.39146843749383e-06
6.39563493296277e-06
6.39699958994381e-06
6.39741885712531e-06
6.39753971066372e-06
6.39757200490458e-06
6.39757938060639e-06
6.39758018230979e-06
6.39757953117758e-06
6.39757864088822e-06
6.39757778346892e-06
6.39757701693265e-06
6.39757634892761e-06
6.39757577717411e-06
6.39757529923166e-06
6.39757491523814e-06
6.39757463028293e-06
6.39757445365794e-06
6.39757438687447e-06
6.3975743988235e-06
6.39757446424066e-06
6.3975745374478e-06
6.39757428975408e-06
6.39757213089838e-06
6.39756240105723e-06
6.39752493080637e-06
6.39739085879049e-06
6.39693823122595e-06
6.39549470893197e-06
6.39116023197159e-06
6.37897028579226e-06
6.34706488677614e-06
6.26989394325247e-06
6.09868316286689e-06
5.75284465284913e-06
5.12119634648933e-06
4.08443960928491e-06
2.56343282240939e-06
7.98418665580843e-09
3.10192540676941e-11
3.22935450522616e-11
8.39489609614683e-09
2.70526813317133e-06
4.31162279398259e-06
5.40680426844704e-06
6.07416451966637e-06
6.43929120074374e-06
6.6196477987809e-06
6.70060454775759e-06
6.73386455181924e-06
6.74646320110147e-06
6.75089416016465e-06
6.75235008813371e-06
6.75279912574829e-06
6.75292925666764e-06
6.75296436610437e-06
6.7529726517008e-06
6.75297380383769e-06
6.75297327589785e-06
6.75297247363557e-06
6.75297168023327e-06
6.75297096184732e-06
6.75297032915988e-06
6.75296978129225e-06
6.75296931628231e-06
6.75296893377398e-06
6.75296863669407e-06
6.75296843130421e-06
6.75296832094183e-06
6.75296828934625e-06
6.75296830668831e-06
6.75296830713516e-06
6.75296791307211e-06
6.75296550924373e-06
6.75295522284797e-06
6.75291594048392e-06
6.75277559929625e-06
6.75230162330821e-06
6.75078864015794e-06
6.74624111728881e-06
6.73344065201871e-06
6.69991311621571e-06
6.61877522651632e-06
6.43869639741443e-06
6.07483950231368e-06
5.41003975778336e-06
4.31810613082095e-06
2.71385076589351e-06
8.46026559261748e-09
3.28008306249583e-11
3.36217850286737e-11
8.75153246698611e-09
2.81776509107656e-06
4.48548496676629e-06
5.6213472705219e-06
6.31343879730772e-06
6.69231612325897e-06
6.87966635239186e-06
6.96388576323779e-06
6.99854837515977e-06
7.01170585293531e-06
7.0163444489697e-06
7.01787280644012e-06
7.01834575650932e-06
7.01848345418218e-06
7.01852090711534e-06
7.01852998798619e-06
7.01853145597696e-06
7.01853107549294e-06
7.01853036951952e-06
7.01852964857156e-06
7.01852898625019e-06
7.01852839611483e-06
7.01852787863056e-06
7.0185274323984e-06
7.01852705687826e-06
7.01852675358142e-06
7.01852652627671e-06
7.0185263773075e-06
7.01852629887843e-06
7.01852625965032e-06
7.01852618098656e-06
7.01852565524178e-06
7.01852306339571e-06
7.01851233769125e-06
7.01847169790992e-06
7.01832673188477e-06
7.01783704033327e-06
7.01627281759307e-06
7.01156766930718e-06
6.99831426929715e-06
6.96358076389413e-06
6.8794896370285e-06
6.69280456308002e-06
6.31552366978605e-06
5.62602965506847e-06
4.49298934590581e-06
2.82662361531822e-06
8.81606040955911e-09
3.41201360036434e-11
3.45708872071664e-11
9.00864533294514e-09
2.89932545135889e-06
4.61158619051189e-06
5.7770688230487e-06
6.48725392591151e-06
6.87625234982036e-06
7.06878680188573e-06
7.15544406272765e-06
7.19116384693634e-06
7.20474647518314e-06
7.20954461911784e-06
7.21112922943765e-06
7.21162097452794e-06
7.21176470828675e-06
7.21180407275952e-06
7.21181382009883e-06
7.21181556991697e-06
7.21181533313656e-06
7.21181472241952e-06
7.2118140743437e-06
7.21181346933911e-06
7.21181292356942e-06
7.21181243874236e-06
7.21181201403859e-06
7.21181164892523e-06
7.21181134406788e-06
7.21181110152402e-06
7.21181092249223e-06
7.21181080112772e-06
7.21181071085406e-06
7.21181055794473e-06
7.21180992987176e-06
7.21180718010975e-06
7.2117961156358e-06
7.21175448044863e-06
7.21160618235461e-06
7.21110520227125e-06
7.20950411208991e-06
7.2046852412862e-06
7.19110422672603e-06
7.15549669766566e-06
7.0692624359852e-06
6.87778017189012e-06
6.49075004152069e-06
5.78332379146264e-06
4.62042949852025e-06
2.90890201397832e-06
9.07451114961166e-09
3.50696652864082e-11
3.5229146498824e-11
9.18861855206633e-09
2.95682218268351e-06
4.70060169368594e-06
5.8871363813427e-06
6.61025329304497e-06
7.00653344946285e-06
7.20282579930648e-06
7.29126484057281e-06
7.32776421408269e-06
7.34166335293499e-06
7.34658147540222e-06
7.34820884303679e-06
7.34871504397548e-06
7.3488634869236e-06
7.34890437528129e-06
7.34891466498817e-06
7.34891665400072e-06
7.34891654934657e-06
7.34891602677373e-06
7.34891544671374e-06
7.34891489585451e-06
7.34891439265415e-06
7.34891393990926e-06
7.34891353734166e-06
7.3489131845259e-06
7.34891288166428e-06
7.34891262973149e-06
7.34891242900307e-06
7.34891227427443e-06
7.34891214053372e-06
7.34891192793105e-06
7.34891121697398e-06
7.3489083413686e-06
7.34889702208617e-06
7.34885467367253e-06
7.34870403267166e-06
7.34819514419537e-06
7.3465681903446e-06
7.34166933692787e-06
7.32785734749388e-06
7.29163243886825e-06
7.20388239319953e-06
7.00900482337048e-06
6.61507279726953e-06
5.89495116947708e-06
4.71091640291098e-06
2.96737240276484e-06
9.25721555553638e-09
3.57347349535673e-11
3.56729000023684e-11
9.3110940454625e-09
2.99627406065842e-06
4.76180935169628e-06
5.96295380012772e-06
6.69510191482289e-06
7.09650378085415e-06
7.29546020147988e-06
7.38517324111098e-06
7.42223515336725e-06
7.43636490054941e-06
7.44137133259283e-06
7.44303051197379e-06
7.44354759507107e-06
7.44369963221484e-06
7.44374170620696e-06
7.44375242584695e-06
7.44375461273863e-06
7.44375462316533e-06
7.44375417795693e-06
7.44375365809018e-06
7.44375315568766e-06
7.44375269115394e-06
7.44375226820206e-06
7.44375188701871e-06
7.44375154732342e-06
7.44375124908234e-06
7.44375099261819e-06
7.44375077751968e-06
7.44375059860639e-06
7.44375043122503e-06
7.44375017259539e-06
7.44374939774916e-06
7.44374642616646e-06
7.44373492086296e-06
7.44369207391531e-06
7.44353982585458e-06
7.4430255345315e-06
7.44138089059072e-06
7.43642719931085e-06
7.42245647702176e-06
7.38580649004383e-06
7.29701141944244e-06
7.099791151917e-06
6.70109498224114e-06
5.97220799717675e-06
4.77357056864367e-06
3.00788424044538e-06
9.38306782790714e-09
3.6188675203556e-11
3.59640799817467e-11
9.39223229348132e-09
3.02265048217924e-06
4.80284318573399e-06
6.0138925714794e-06
6.75220609535739e-06
7.15713106660961e-06
7.35793518771652e-06
7.44853966388424e-06
7.48599889792005e-06
7.50029313525028e-06
7.50536320927979e-06
7.50704556382919e-06
7.50757066784937e-06
7.50772539023706e-06
7.50776836625631e-06
7.50777941958416e-06
7.50778176521854e-06
7.50778187144154e-06
7.50778149145982e-06
7.50778102289483e-06
7.50778056230743e-06
7.50778013169077e-06
7.50777973548922e-06
7.50777937426915e-06
7.50777904789642e-06
7.50777875622354e-06
7.50777849918996e-06
7.50777827590228e-06
7.50777808097046e-06
7.50777788963987e-06
7.50777759753363e-06
7.50777677594065e-06
7.50777373444685e-06
7.50776209780068e-06
7.50771891146586e-06
7.50756558842297e-06
7.50704769731082e-06
7.5053912539862e-06
7.50040089983343e-06
7.48632380866403e-06
7.44938843364031e-06
7.35989078238234e-06
7.1610940152063e-06
6.75918986316153e-06
6.02439761975077e-06
4.81591519338755e-06
3.03527932611871e-06
9.4676464643753e-09
3.64909993190741e-11
3.61503136734727e-11
9.44462953661994e-09
3.03985196020785e-06
4.82969067359103e-06
6.04730448418773e-06
6.78973474629108e-06
7.19703105325084e-06
7.39908951947389e-06
7.49030469297796e-06
7.52803874056192e-06
7.54244789458389e-06
7.54756289609003e-06
7.54926179018417e-06
7.5497926858382e-06
7.54994937339191e-06
7.54999302153079e-06
7.55000432853955e-06
7.55000679844068e-06
7.55000698207384e-06
7.55000665551054e-06
7.55000622957297e-06
7.55000580423686e-06
7.55000540274935e-06
7.55000503012192e-06
7.55000468721174e-06
7.5500043740077e-06
7.55000409031976e-06
7.55000383586284e-06
7.55000360941331e-06
7.55000340532791e-06
7.55000319861099e-06
7.55000288392573e-06
7.55000203014544e-06
7.54999894024046e-06
7.54998721425436e-06
7.5499438033109e-06
7.54978977925479e-06
7.54926954847764e-06
7.54760542691207e-06
7.54259115877672e-06
7.52844452559429e-06
7.49132220814801e-06
7.40136364829873e-06
7.20153151781573e-06
6.79751872688909e-06
6.05884177542879e-06
4.84387616899233e-06
3.05337882248039e-06
9.52317063866465e-09
3.66877160611251e-11
3.62665680738793e-11
9.47765507193582e-09
3.05080655496672e-06
4.8468512186985e-06
6.068720989243e-06
6.81384163402124e-06
7.22270071354891e-06
7.42559318715005e-06
7.51721822059645e-06
7.55513851708095e-06
7.5696263493938e-06
7.5747724367633e-06
7.57648290125905e-06
7.57701789647081e-06
7.57717599406087e-06
7.57722013327478e-06
7.5772316295889e-06
7.57723419550533e-06
7.57723444100658e-06
7.57723415727654e-06
7.57723376632394e-06
7.5772333704354e-06
7.57723299381365e-06
7.57723264189265e-06
7.57723231574583e-06
7.5772320154559e-06
7.57723174082207e-06
7.57723149143105e-06
7.57723126583653e-06
7.57723105817363e-06
7.57723084319885e-06
7.5772305149679e-06
7.57722964083508e-06
7.57722651951125e-06
7.57721473546448e-06
7.57717118053066e-06
7.57701671119373e-06
7.57649499678328e-06
7.57482599815266e-06
7.56979650230326e-06
7.55560548061e-06
7.51836359699929e-06
7.42810976815838e-06
7.22761350126752e-06
6.82224662317769e-06
6.08107228947156e-06
4.86193304550922e-06
3.06507434495912e-06
9.55881885353879e-09
3.68129233468362e-11
3.63374853364018e-11
9.49799586013618e-09
3.05762633362707e-06
4.85757774016645e-06
6.08214897124031e-06
6.82899176398496e-06
7.23885997598971e-06
7.44229594488671e-06
7.53419063885036e-06
7.57223470147791e-06
7.58677535934208e-06
7.59194254198917e-06
7.59366094607168e-06
7.59419878822892e-06
7.59435787885451e-06
7.5944023705652e-06
7.59441400603517e-06
7.59441664638006e-06
7.59441694159937e-06
7.59441669103712e-06
7.59441632873327e-06
7.59441595749644e-06
7.59441560220656e-06
7.59441526860209e-06
7.59441495789778e-06
7.59441467025121e-06
7.59441440546352e-06
7.59441416304747e-06
7.59441394141206e-06
7.59441373451779e-06
7.59441351691612e-06
7.59441318226734e-06
7.59441229699172e-06
7.59440915714801e-06
7.59439733762629e-06
7.59435369386866e-06
7.59419894954956e-06
7.59367631736588e-06
7.59200429357939e-06
7.58696532514667e-06
7.57274661992154e-06
7.53543000585869e-06
7.44499130132265e-06
7.24407857768626e-06
6.83786144066436e-06
6.09511672417896e-06
4.87334852549085e-06
3.07247335062999e-06
9.58122715309687e-09
3.68909651850448e-11
3.63798059921228e-11
9.51025093917203e-09
3.06178068647433e-06
4.86414048462641e-06
6.09039184690964e-06
6.83831522155741e-06
7.24882240397617e-06
7.45260576609329e-06
7.54467451820506e-06
7.58279928232624e-06
7.59737474724264e-06
7.60255598060419e-06
7.60427973292821e-06
7.60481951661012e-06
7.6049792947358e-06
7.60502403583042e-06
7.60503577229895e-06
7.6050384727851e-06
7.60503880983913e-06
7.60503858171372e-06
7.6050382430289e-06
7.60503789274952e-06
7.60503755609015e-06
7.60503723898485e-06
7.60503694273573e-06
7.60503666755328e-06
7.60503641324878e-06
7.60503617929578e-06
7.60503596400572e-06
7.60503576121314e-06
7.60503554531197e-06
7.60503520971052e-06
7.6050343202627e-06
7.60503117143111e-06
7.60501933237614e-06
7.60497563674083e-06
7.60482072818469e-06
7.6042975429184e-06
7.60262368678351e-06
7.59757895936986e-06
7.58334337353519e-06
7.54598108081048e-06
7.4554291451704e-06
7.25426091031196e-06
6.84752125597038e-06
6.10380981267193e-06
4.88041990360625e-06
3.07706040886441e-06
9.59503194411435e-09
3.69386494511003e-11
3.64045304594892e-11
9.51747874826e-09
3.06425860856237e-06
4.86807327657697e-06
6.09534915542854e-06
6.84393761151633e-06
7.25484180515829e-06
7.45884312059837e-06
7.55102217598629e-06
7.58919861253221e-06
7.60379660186773e-06
7.60898702782768e-06
7.6107143197041e-06
7.6112554050025e-06
7.61141565187964e-06
7.61146056753964e-06
7.61147237664477e-06
7.6114751229217e-06
7.61147549120106e-06
7.61147528580187e-06
7.6114749672101e-06
7.61147463516831e-06
7.61147431515967e-06
7.61147401323781e-06
7.61147373074137e-06
7.6114734679174e-06
7.61147322459606e-06
7.61147300023313e-06
7.61147279307459e-06
7.61147259686569e-06
7.6114723858846e-06
7.61147205338338e-06
7.61147116488475e-06
7.61146801393027e-06
7.61145616637379e-06
7.6114124431654e-06
7.61125744094681e-06
7.6107339324202e-06
7.60905899426902e-06
7.60401084664986e-06
7.58976519632465e-06
7.55237558824598e-06
7.4617557785668e-06
7.26043406400518e-06
6.85337992996699e-06
6.10908546237466e-06
4.88471517780475e-06
3.07984927381156e-06
9.60337353749309e-09
3.69672337544796e-11
3.64186685790475e-11
9.52165093062983e-09
3.06570556556807e-06
4.87038145097755e-06
6.09826996323275e-06
6.8472600755877e-06
7.25840642526077e-06
7.46254203040646e-06
7.55478975341564e-06
7.59299869990322e-06
7.60761101464746e-06
7.61280735250093e-06
7.61453694776221e-06
7.61507889183956e-06
7.61523945413492e-06
7.61528449129508e-06
7.61529635306934e-06
7.61529913314774e-06
7.61529952821794e-06
7.61529934329937e-06
7.61529904230932e-06
7.61529872660542e-06
7.61529842189174e-06
7.61529813429085e-06
7.61529786512506e-06
7.61529761466579e-06
7.61529738277694e-06
7.61529716891011e-06
7.61529697127018e-06
7.61529678353356e-06
7.61529657990602e-06
7.61529625353798e-06
7.61529536977292e-06
7.61529222166611e-06
7.61528037327643e-06
7.61523663847849e-06
7.61508158716192e-06
7.61455789801464e-06
7.61288234121064e-06
7.60783221685152e-06
7.5935807122728e-06
7.55617514497474e-06
7.46551554516122e-06
7.26410360394243e-06
6.85686412913612e-06
6.11222518479188e-06
4.88727402738431e-06
3.08151252295948e-06
9.60831900684463e-09
3.69840506926264e-11
3.64265576954745e-11
9.52400113632403e-09
3.06653047686563e-06
4.87170490922964e-06
6.09995212532082e-06
6.84917999562483e-06
7.26047124148158e-06
7.46468807255317e-06
7.55697778488572e-06
7.59520683282314e-06
7.60982810478079e-06
7.61502818158448e-06
7.61675925146274e-06
7.61730175352915e-06
7.61746252558099e-06
7.61750764708131e-06
7.61751954765321e-06
7.61752235380206e-06
7.61752277139107e-06
7.61752260454444e-06
7.61752231926438e-06
7.61752201850467e-06
7.61752172811315e-06
7.61752145424246e-06
7.61752119813995e-06
7.61752096009551e-06
7.61752074002188e-06
7.61752053737916e-06
7.61752035034789e-06
7.61752017255488e-06
7.61751997815173e-06
7.61751966023499e-06
7.61751878407111e-06
7.6175156425059e-06
7.61750379877189e-06
7.61746006315093e-06
7.61730499119674e-06
7.61678120998295e-06
7.61510531878525e-06
7.61005409886302e-06
7.59579930495146e-06
7.55838469146226e-06
7.46770239612061e-06
7.26623874451089e-06
6.85889262651547e-06
6.11405476057497e-06
4.88876695590978e-06
3.08248426828252e-06
9.61119269254304e-09
3.69937523677343e-11
3.64307990092108e-11
9.52527714090062e-09
3.06698430524129e-06
4.87243841973424e-06
6.10088979660942e-06
6.8502548131522e-06
7.26163072050946e-06
7.46589561128037e-06
7.55821047834614e-06
7.59645172198368e-06
7.61107849412771e-06
7.61628089447095e-06
7.61801289238477e-06
7.61855575120614e-06
7.61871666099878e-06
7.61876184081587e-06
7.61877377019679e-06
7.61877659688095e-06
7.61877703331142e-06
7.61877688228974e-06
7.61877661112262e-06
7.61877632416568e-06
7.6187760473185e-06
7.61877578672961e-06
7.61877554350835e-06
7.61877531796413e-06
7.61877511007297e-06
7.61877491931788e-06
7.61877474386275e-06
7.61877457729933e-06
7.6187743937402e-06
7.61877408626014e-06
7.61877322011629e-06
7.61877008814994e-06
7.6187582534219e-06
7.6187145248916e-06
7.6185594516448e-06
7.61803563557927e-06
7.61635958858792e-06
7.61130781803762e-06
7.59705130563202e-06
7.55963185321912e-06
7.4689372237075e-06
7.2674451480121e-06
6.86003990361851e-06
6.11509097976317e-06
4.88961407790813e-06
3.08303685304177e-06
9.61282003253025e-09
3.69992131441973e-11
3.64328882161958e-11
9.52591324657632e-09
3.06721461833634e-06
4.87281555278428e-06
6.10137674511933e-06
6.85081709834679e-06
7.26224042018918e-06
7.46653272041932e-06
7.55886218389154e-06
7.59711063298901e-06
7.61174070085947e-06
7.61694451225872e-06
7.61867708142839e-06
7.61922016342477e-06
7.61938116180547e-06
7.61942638124463e-06
7.61943833168275e-06
7.61944117434234e-06
7.619441626192e-06
7.61944148868304e-06
7.61944122995953e-06
7.61944095558574e-06
7.61944069141406e-06
7.61944044355574e-06
7.619440212935e-06
7.61943999989432e-06
7.61943980448081e-06
7.61943962620221e-06
7.61943946321194e-06
7.61943930907456e-06
7.61943913787721e-06
7.61943884269061e-06
7.61943798882219e-06
7.61943486927343e-06
7.61942304744669e-06
7.61937933266438e-06
7.61922427314756e-06
7.61870046366869e-06
7.61702438378804e-06
7.61197242411643e-06
7.59771520792142e-06
7.56029358161692e-06
7.46959308719467e-06
7.26808697455278e-06
6.86065174265435e-06
6.11564537146954e-06
4.89006914895686e-06
3.08333514672537e-06
9.61369842904884e-09
3.70021546715913e-11
3.6433615873171e-11
9.52614104650481e-09
3.0673010896467e-06
4.87296341771409e-06
6.10157392470717e-06
6.85105012339987e-06
7.26249713389751e-06
7.46680371282637e-06
7.55914106370769e-06
7.59739356741292e-06
7.61202553053336e-06
7.61723017338422e-06
7.61896308940177e-06
7.61950631303566e-06
7.61966737236841e-06
7.619712623011e-06
7.61972459282266e-06
7.6197274514613e-06
7.61972791899436e-06
7.61972779551747e-06
7.61972754983558e-06
7.6197272886247e-06
7.61972703760066e-06
7.61972680280404e-06
7.61972658502281e-06
7.61972638465725e-06
7.61972620180866e-06
7.61972603599558e-06
7.61972588535189e-06
7.61972574340533e-06
7.61972558419785e-06
7.6197253007879e-06
7.61972445855499e-06
7.61972135078861e-06
7.61970954169199e-06
7.61966584249027e-06
7.6195108055228e-06
7.61898703349651e-06
7.61731101672484e-06
7.61225914547851e-06
7.59800197797209e-06
7.56058008519838e-06
7.46987821565408e-06
7.26836780579681e-06
6.86092193228638e-06
6.11589316237959e-06
4.89027553899748e-06
3.08347276938173e-06
9.61411055749476e-09
3.70035520259707e-11
3.64332770517016e-11
9.52604901283309e-09
3.06727609672466e-06
4.87293548176473e-06
6.1015505065807e-06
6.85103381397738e-06
7.26248753510767e-06
7.46679914755916e-06
7.55913972866248e-06
7.59739407138767e-06
7.61202697689003e-06
7.61723207127241e-06
7.61896519347649e-06
7.61950851231913e-06
7.61966962086489e-06
7.61971490277618e-06
7.61972689580084e-06
7.61972977478714e-06
7.61973026177846e-06
7.61973015560842e-06
7.61972992577352e-06
7.61972968003335e-06
7.61972944388473e-06
7.61972922327143e-06
7.61972901900513e-06
7.6197288315514e-06
7.61972866102268e-06
7.61972850692217e-06
7.61972836733806e-06
7.61972823572865e-06
7.61972808604878e-06
7.61972781129994e-06
7.61972697693301e-06
7.61972387665075e-06
7.61971207599182e-06
7.61966838992677e-06
7.61951338070277e-06
7.61898967540117e-06
7.61731381913769e-06
7.6122623131875e-06
7.59800591396355e-06
7.56058549256911e-06
7.46988615174927e-06
7.26837956778303e-06
6.86093862614227e-06
6.1159148590339e-06
4.89030002555877e-06
3.08349415262748e-06
9.61419340048375e-09
3.70038871745776e-11
3.64317838533849e-11
9.52561603807297e-09
3.06713452240854e-06
4.87272640832298e-06
6.1013023186722e-06
6.85076554652545e-06
7.26221041899925e-06
7.46651888385575e-06
7.5588587220127e-06
7.59711306440526e-06
7.61174616219916e-06
7.61695141330213e-06
7.61868463299471e-06
7.61922800952491e-06
7.61938915540137e-06
7.61943446544668e-06
7.61944648174286e-06
7.61944938186723e-06
7.61944988870282e-06
7.61944980026025e-06
7.61944958666354e-06
7.61944935675916e-06
7.61944913570214e-06
7.61944892930773e-06
7.61944873856167e-06
7.61944856396754e-06
7.61944840561061e-06
7.61944826296265e-06
7.61944813405159e-06
7.61944801224239e-06
7.61944787137662e-06
7.61944760439054e-06
7.61944677685719e-06
7.61944368315426e-06
7.61943189101861e-06
7.61938822192289e-06
7.6192332562217e-06
7.61870966785956e-06
7.6170341148161e-06
7.61198335013708e-06
7.5977286459712e-06
7.56031183337469e-06
7.46961961728562e-06
7.26812602911788e-06
6.86070691898465e-06
6.11571684458916e-06
4.89014965437678e-06
3.0834051835676e-06
9.61396743682073e-09
3.70032276671496e-11
3.64286959822039e-11
9.52471356719267e-09
3.06683307527762e-06
4.87227079429518e-06
6.1007506043648e-06
6.8501592490093e-06
7.26157617085874e-06
7.46587182613671e-06
7.55820644245041e-06
7.59645889671947e-06
7.6110914196131e-06
7.61629653817372e-06
7.61802975093975e-06
7.61857314785415e-06
7.61873431690719e-06
7.61877964873181e-06
7.61879168504587e-06
7.61879460391259e-06
7.61879512832191e-06
7.61879505575647e-06
7.61879485680542e-06
7.61879464150243e-06
7.61879443454814e-06
7.61879424159926e-06
7.61879406384894e-06
7.6187939018249e-06
7.61879375557825e-06
7.61879362455081e-06
7.61879350670817e-06
7.61879339530976e-06
7.61879326407806e-06
7.61879300590742e-06
7.61879218662658e-06
7.6187891017325e-06
7.61877732256613e-06
7.61873368140362e-06
7.6185787891723e-06
7.6180554006147e-06
7.61638037361181e-06
7.61133092159002e-06
7.59707929581655e-06
7.55966923170817e-06
7.46899078101198e-06
7.26752320675456e-06
6.86014947655688e-06
6.11523229191122e-06
4.88977275650728e-06
3.08317439865537e-06
9.61334836246693e-09
3.70013349157962e-11
3.64230233491013e-11
9.52305927212202e-09
3.06627920844315e-06