/*--------------------------------*- C++ -*----------------------------------*\
  =========                 |
  \\      /  F ield         | OpenFOAM: The Open Source CFD Toolbox
   \\    /   O peration     | Website:  https://openfoam.org
    \\  /    A nd           | Version:  10
     \\/     M anipulation  |
\*---------------------------------------------------------------------------*/
FoamFile
{
    format      ascii;
    class       volScalarField;
    location    "3.6";
    object      h;
}
// * * * * * * * * * * * * * * * * * * * * * * * * * * * * * * * * * * * * * //

dimensions      [0 2 -2 0 0 0 0];

internalField   nonuniform List<scalar> 
2500
(
6920.82830308243
6896.51135789928
6874.23336366745
6863.50268271098
6859.00688231355
6857.2059381195
6856.51309089627
6856.25902308442
6856.17023341867
6856.14120554981
6856.13071183059
6856.12683859024
6856.12525909989
6856.12391305986
6856.12275969038
6856.12153354416
6856.12088446414
6856.12009877497
6856.11921066408
6856.11857795287
6856.11800380253
6856.11746219118
6856.11699758624
6856.1167487153
6856.11648741667
6856.11620586247
6856.11610375992
6856.11602069713
6856.11597211987
6856.11604853116
6856.11616487541
6856.1163656089
6856.11673018985
6856.1172076917
6856.11767290361
6856.11818962696
6856.11883367098
6856.11957340526
6856.12145609697
6856.12546621926
6856.13669610613
6856.16984536777
6856.26603656455
6856.53329754607
6857.24337957347
6859.0455087801
6863.50878323619
6874.23445382145
6896.81185802987
6920.6894954683
5340.05019312377
5261.83335362705
5199.86680162801
5168.27400208962
5153.76722744413
5147.41508554903
5144.76933309859
5143.7342413545
5143.35611956795
5143.22733904539
5143.1855833419
5143.17269874656
5143.16889665728
5143.16747135468
5143.16671617614
5143.16610640436
5143.16576607004
5143.16538072692
5143.16493734569
5143.16458407342
5143.16421620891
5143.16380703528
5143.16343401159
5143.16325431408
5143.1631141981
5143.16292378225
5143.16286335931
5143.16280779004
5143.1626879521
5143.16275217104
5143.16279736233
5143.16277517028
5143.16314454223
5143.16364472796
5143.16390484432
5143.16417134408
5143.16477237432
5143.16627513764
5143.17119731781
5143.18667495372
5143.23500326345
5143.37913522711
5143.78497296627
5144.85971016664
5147.5376563146
5153.86103034734
5168.24351937945
5199.86416431434
5262.90520801296
5340.43582750242
3969.92904142034
3870.45043256281
3797.3132061869
3760.25024763828
3743.25462835011
3735.8109607083
3732.70108410022
3731.47755570902
3731.02760141986
3730.87318335021
3730.82325043982
3730.80807776271
3730.8038554291
3730.80262097834
3730.80219802125
3730.80197894369
3730.80187846191
3730.8017602448
3730.80159917906
3730.80145624899
3730.80127081435
3730.80101866602
3730.80076270134
3730.80063455704
3730.80056778227
3730.80045092671
3730.80043045619
3730.80040352068
3730.80028384212
3730.80031380301
3730.80031348264
3730.80022714728
3730.80053189412
3730.80094536239
3730.80097688843
3730.80100107101
3730.8015199834
3730.80312660386
3730.80856473675
3730.8264742048
3730.88306530973
3731.05232525653
3731.52859209111
3732.78797744068
3735.92264966599
3743.33155318524
3760.22494018472
3797.46827181359
3872.23292657252
3972.91644125893
3000.74190114266
2914.35437020823
2857.96408519501
2830.3251856976
2818.17968265979
2813.06540483026
2810.990078905
2810.18860340087
2809.89699985107
2809.7974584682
2809.76536625324
2809.75569482834
2809.75310743777
2809.75242875972
2809.75227317889
2809.75224113433
2809.75225133221
2809.75225028188
2809.75222141177
2809.75218767675
2809.75212006933
2809.75199349147
2809.75184120815
2809.75175384432
2809.75172742559
2809.75167022475
2809.75166747184
2809.75167827609
2809.75162325277
2809.75162444453
2809.75162032174
2809.75153499838
2809.75170094877
2809.75191295479
2809.75191500841
2809.75191881621
2809.75210386703
2809.75296754827
2809.75619448488
2809.7670797677
2809.80205380113
2809.90828576381
2810.21190380931
2811.03000098162
2813.11713136463
2818.21778955825
2830.34726794551
2858.2809525894
2916.26428698083
3005.42208991801
2416.65987679323
2357.55099347894
2322.94789874646
2306.52647589373
2299.58080561526
2296.75834616196
2295.64206263932
2295.21715595271
2295.06346149732
2295.01100717937
2294.9940378303
2294.98893182365
2294.98760776919
2294.98731060721
2294.98729267997
2294.98731254515
2294.98734493655
2294.98736815544
2294.98737085917
2294.98737130844
2294.98735904295
2294.98730905016
2294.98723207665
2294.98717953207
2294.98717794107
2294.98717726661
2294.98718223529
2294.98718791577
2294.98716802593
2294.98716570321
2294.98715677399
2294.9870884199
2294.98716443024
2294.98725549696
2294.98724338093
2294.98724005853
2294.98729533577
2294.98766354623
2294.98923408553
2294.9946946456
2295.01243769212
2295.06685404263
2295.22395947746
2295.65315374837
2296.77078397785
2299.58531905754
2306.54195280655
2323.21914932119
2359.05375313474
2421.18309980969
2107.75148398395
2073.71092329264
2055.66204012541
2047.34220459726
2043.93375915341
2042.59032673287
2042.0706506403
2041.87507529788
2041.80452071923
2041.78037103817
2041.77250688993
2041.77013456055
2041.76954507001
2041.76943759707
2041.76944708915
2041.76947028902
2041.7694975408
2041.76951935018
2041.76952920973
2041.76953379437
2041.76953571925
2041.76952084031
2041.76948768117
2041.76946521814
2041.76947041512
2041.76947819073
2041.76948268124
2041.76948671908
2041.76948162218
2041.76947975468
2041.76947105089
2041.76943056401
2041.76946057802
2041.76949376968
2041.76947922297
2041.76947713375
2041.76948761378
2041.76962070065
2041.77029518443
2041.77271217288
2041.78063190172
2041.80503629176
2041.87587084791
2042.07117374302
2042.58812091522
2043.92409628654
2047.33924520649
2055.81794318501
2074.65672720903
2111.06586777728
1961.2225047064
1944.0733463273
1935.7566598323
1932.02272467225
1930.53251614471
1929.96004765682
1929.74280839792
1929.66180448068
1929.63260330725
1929.62256141723
1929.61926620127
1929.61826791435
1929.61802997353
1929.61799766603
1929.61800869939
1929.61802402919
1929.61804045138
1929.61805401802
1929.61806240766
1929.61806599391
1929.61806896857
1929.61806558082
1929.61805299028
1929.61804606625
1929.61805049465
1929.61805544277
1929.61805815387
1929.61806049393
1929.61805909334
1929.61805852835
1929.61805397445
1929.61803347491
1929.61804356422
1929.61805363426
1929.61804596028
1929.61804470317
1929.61804417404
1929.61808592308
1929.61834602871
1929.61932319069
1929.62254236647
1929.6324684349
1929.6613184222
1929.74128560575
1929.95563538605
1930.52188070621
1932.01169463929
1935.824377149
1944.57535969471
1963.22861683193
1897.84053056455
1890.08722836748
1886.61352116437
1885.0918249763
1884.49741504559
1884.27390542771
1884.1904896303
1884.1596282667
1884.14849970084
1884.14465168149
1884.14337959043
1884.14299289592
1884.14290520533
1884.14289731841
1884.14290310319
1884.14291117942
1884.14291938872
1884.14292621228
1884.14293087472
1884.14293286751
1884.14293501477
1884.14293468717
1884.14293048653
1884.1429293111
1884.14293186034
1884.14293396575
1884.14293524742
1884.14293652203
1884.14293594047
1884.14293528399
1884.14293352292
1884.14292479152
1884.14292749088
1884.14292978988
1884.14292710253
1884.1429264578
1884.1429235438
1884.1429346938
1884.14302810055
1884.14339586032
1884.14461197952
1884.14835213349
1884.15920283689
1884.18933972494
1884.2708754909
1884.4902442342
1885.08171496942
1886.6362341391
1890.31986781129
1898.89161948579
1872.51221509257
1869.30861384203
1867.96908071832
1867.39600570526
1867.17611257824
1867.09487985917
1867.06499906177
1867.05402014661
1867.05005841865
1867.04868084031
1867.04822249172
1867.04808305539
1867.04805255159
1867.04805097745
1867.04805394965
1867.04805766404
1867.04806127316
1867.04806427134
1867.04806643374
1867.04806741189
1867.0480685149
1867.04806864441
1867.04806757588
1867.04806785421
1867.04806894374
1867.04806970717
1867.04807021962
1867.04807073885
1867.04807050306
1867.04807011902
1867.04806942411
1867.04806602999
1867.04806656113
1867.0480667712
1867.04806567439
1867.04806544181
1867.04806403219
1867.04806653112
1867.04809782434
1867.04822823243
1867.04866092939
1867.04998510607
1867.05381024727
1867.06442690264
1867.09333412026
1867.1722788069
1867.38958253928
1867.97445460032
1869.40500344227
1873.00321649368
1863.06372442239
1861.83736692698
1861.3539514927
1861.151889999
1861.07552842645
1861.04772712134
1861.03762821769
1861.03394087591
1861.03260942557
1861.03214402536
1861.03198835898
1861.03194109396
1861.03193102577
1861.03193083707
1861.03193218132
1861.03193372264
1861.03193516398
1861.0319363636
1861.03193726665
1861.03193777186
1861.03193819555
1861.03193827104
1861.0319381444
1861.03193843484
1861.03193885068
1861.03193911388
1861.03193929842
1861.03193947114
1861.03193937861
1861.03193920662
1861.03193893519
1861.0319377063
1861.03193760385
1861.03193751497
1861.03193717385
1861.03193698462
1861.03193631896
1861.03193675788
1861.03194686503
1861.0319908814
1861.03213721129
1861.03258212548
1861.03385961122
1861.03739521005
1861.04705866828
1861.07376435902
1861.14856575928
1861.35430117957
1861.87367943358
1863.27242215795
1859.74549885181
1859.30595151458
1859.14101309289
1859.07363873742
1859.04851444753
1859.03947588664
1859.03622783224
1859.03504876239
1859.034622861
1859.03447331275
1859.03442308778
1859.03440788482
1859.03440471575
1859.03440475704
1859.03440530135
1859.03440588902
1859.03440642205
1859.03440686784
1859.0344072153
1859.03440743085
1859.03440760362
1859.03440767413
1859.03440768709
1859.03440781566
1859.03440795621
1859.03440804338
1859.03440810582
1859.03440815526
1859.03440811829
1859.03440805166
1859.03440795301
1859.0344075829
1859.03440750968
1859.03440742806
1859.0344072535
1859.03440709222
1859.03440680846
1859.0344068778
1859.03441003672
1859.03442425536
1859.03447159734
1859.03461449816
1859.03502190188
1859.03614442429
1859.03921729722
1859.04778670579
1859.07214180183
1859.14048556073
1859.31854065779
1859.8274191139
1858.64075077752
1858.49200505935
1858.43838610765
1858.41697460714
1858.40908558633
1858.40627501727
1858.40527421835
1858.40491287136
1858.40478235376
1858.40473635481
1858.40472085938
1858.4047161841
1858.40471522766
1858.40471526981
1858.40471547069
1858.40471567871
1858.40471586311
1858.40471601822
1858.4047161428
1858.40471622501
1858.40471628912
1858.4047163241
1858.40471634478
1858.40471639342
1858.40471643761
1858.40471646536
1858.40471648563
1858.40471649567
1858.40471648188
1858.40471646067
1858.40471642617
1858.40471631893
1858.40471628104
1858.40471623875
1858.40471616398
1858.40471608374
1858.40471597603
1858.40471598471
1858.40471694402
1858.40472136646
1858.40473609038
1858.40478020243
1858.40490500827
1858.40524697009
1858.40618277372
1858.40880958048
1858.41636654295
1858.43797543081
1858.49605616094
1858.67078437733
1858.29003143345
1858.24218125851
1858.22547486954
1858.21894910996
1858.21657127942
1858.21573086102
1858.21543387113
1858.21532716892
1858.21528864715
1858.21527503178
1858.21527043461
1858.21526905079
1858.21526877141
1858.21526879098
1858.2152688589
1858.2152689273
1858.21526898692
1858.21526903735
1858.21526907897
1858.21526910777
1858.21526912953
1858.21526914327
1858.21526915353
1858.21526916971
1858.21526918277
1858.2152691912
1858.21526919761
1858.21526919915
1858.21526919493
1858.21526918816
1858.2152691762
1858.21526914575
1858.21526913011
1858.2152691129
1858.21526908489
1858.21526905299
1858.2152690162
1858.21526901713
1858.2152693025
1858.21527063295
1858.21527505146
1858.21528819171
1858.21532508317
1858.21542553002
1858.21569989551
1858.21647337114
1858.21872116541
1858.22526446598
1858.24339829765
1858.3004070251
1858.18334112219
1858.16862638558
1858.16361442464
1858.16169756603
1858.16100636956
1858.16076366184
1858.16067842301
1858.1606479338
1858.16063693529
1858.16063303903
1858.16063172037
1858.16063132293
1858.16063124226
1858.1606312484
1858.16063126892
1858.16063128929
1858.16063130682
1858.16063132171
1858.16063133429
1858.1606313433
1858.16063134989
1858.16063135431
1858.16063135786
1858.16063136252
1858.16063136599
1858.1606313683
1858.16063137021
1858.16063137035
1858.16063136908
1858.16063136699
1858.16063136327
1858.16063135494
1858.1606313496
1858.16063134381
1858.16063133468
1858.16063132419
1858.16063131321
1858.16063131398
1858.16063139852
1858.16063178797
1858.16063307174
1858.16063686141
1858.1606474196
1858.16067597532
1858.16075373294
1858.16097347635
1858.16161747282
1858.16352440888
1858.16896885497
1858.18674284309
1858.1521110976
1858.14776520484
1858.14631219901
1858.14576738198
1858.14557286773
1858.14550493326
1858.14548119113
1858.14547273055
1858.14546968059
1858.14546859726
1858.14546822888
1858.14546811637
1858.14546809199
1858.14546809243
1858.14546809715
1858.1454681019
1858.14546810592
1858.14546810934
1858.1454681123
1858.14546811438
1858.14546811579
1858.1454681167
1858.14546811743
1858.14546811838
1858.14546811903
1858.1454681194
1858.14546811985
1858.14546811986
1858.14546811957
1858.14546811908
1858.14546811815
1858.14546811613
1858.14546811487
1858.14546811355
1858.14546811136
1858.14546810896
1858.14546810643
1858.14546810805
1858.14546813432
1858.14546824628
1858.14546860931
1858.14546967124
1858.14547260571
1858.14548048609
1858.14550185679
1858.14556230306
1858.14574070908
1858.1462777227
1858.14785552721
1858.15317572025
1858.14328316706
1858.14204559465
1858.14163733061
1858.14148700151
1858.14143383473
1858.14141534988
1858.14140891282
1858.14140662476
1858.14140579922
1858.14140550407
1858.14140540206
1858.14140536941
1858.14140536066
1858.14140535885
1858.14140535858
1858.14140535849
1858.14140535836
1858.14140535822
1858.14140535811
1858.14140535791
1858.14140535762
1858.1414053573
1858.14140535702
1858.14140535686
1858.14140535671
1858.14140535657
1858.14140535658
1858.14140535653
1858.14140535653
1858.1414053566
1858.14140535661
1858.14140535647
1858.14140535663
1858.1414053569
1858.14140535708
1858.14140535739
1858.14140535795
1858.14140536008
1858.14140536915
1858.14140540177
1858.14140550315
1858.14140579424
1858.1414065894
1858.14140870673
1858.14141441845
1858.14143056585
1858.14147851257
1858.14162513357
1858.14206785594
1858.14360276668
1858.14086585741
1858.14052493007
1858.14041346929
1858.14037307951
1858.14035892174
1858.14035401804
1858.14035231349
1858.14035170721
1858.1403514868
1858.14035140617
1858.14035137661
1858.14035136557
1858.14035136104
1858.1403513586
1858.14035135681
1858.14035135528
1858.1403513539
1858.14035135268
1858.14035135162
1858.14035135068
1858.14035134984
1858.14035134911
1858.14035134849
1858.14035134801
1858.14035134763
1858.14035134737
1858.14035134724
1858.1403513472
1858.14035134729
1858.14035134752
1858.14035134784
1858.14035134826
1858.14035134889
1858.1403513497
1858.14035135065
1858.14035135183
1858.1403513533
1858.14035135546
1858.14035135972
1858.14035137049
1858.14035139976
1858.14035147939
1858.14035169142
1858.14035224803
1858.14035373747
1858.1403579391
1858.1403704796
1858.14040941269
1858.14053001096
1858.14095826086
1858.14022292261
1858.1401318273
1858.14010218867
1858.14009158292
1858.14008789541
1858.14008662194
1858.14008617829
1858.14008601868
1858.14008595874
1858.14008593498
1858.14008592462
1858.14008591928
1858.14008591587
1858.14008591323
1858.14008591099
1858.14008590901
1858.14008590725
1858.1400859057
1858.14008590435
1858.14008590317
1858.14008590214
1858.14008590127
1858.14008590054
1858.14008589996
1858.14008589952
1858.14008589921
1858.14008589905
1858.14008589902
1858.14008589914
1858.14008589942
1858.14008589984
1858.14008590043
1858.14008590122
1858.14008590221
1858.14008590341
1858.14008590486
1858.14008590661
1858.14008590877
1858.14008591172
1858.14008591662
1858.14008592658
1858.14008594977
1858.14008600709
1858.14008615224
1858.14008653379
1858.14008760371
1858.14009081036
1858.14010090472
1858.14013287606
1858.14024873825
1858.14005643055
1858.14003278794
1858.14002508764
1858.14002234445
1858.14002139674
1858.14002106984
1858.1400209542
1858.14002091052
1858.14002089217
1858.14002088317
1858.14002087779
1858.14002087392
1858.14002087078
1858.14002086808
1858.14002086568
1858.14002086356
1858.14002086168
1858.14002086001
1858.14002085856
1858.14002085729
1858.1400208562
1858.14002085527
1858.1400208545
1858.14002085388
1858.14002085341
1858.14002085309
1858.14002085292
1858.1400208529
1858.14002085303
1858.14002085333
1858.14002085379
1858.14002085444
1858.14002085528
1858.14002085634
1858.14002085763
1858.14002085918
1858.14002086101
1858.14002086318
1858.14002086579
1858.14002086915
1858.14002087405
1858.14002088254
1858.14002089982
1858.14002093913
1858.14002103722
1858.14002130721
1858.14002211795
1858.140024696
1858.14003296927
1858.1400634162
1858.14001436528
1858.14000841852
1858.14000645054
1858.14000573403
1858.1400054868
1858.1400054012
1858.14000536908
1858.14000535492
1858.14000534716
1858.14000534193
1858.14000533782
1858.14000533433
1858.14000533126
1858.14000532852
1858.14000532607
1858.14000532389
1858.14000532195
1858.14000532024
1858.14000531874
1858.14000531743
1858.14000531631
1858.14000531535
1858.14000531456
1858.14000531393
1858.14000531345
1858.14000531312
1858.14000531295
1858.14000531293
1858.14000531307
1858.14000531337
1858.14000531386
1858.14000531453
1858.1400053154
1858.14000531649
1858.14000531782
1858.14000531941
1858.14000532127
1858.14000532345
1858.14000532597
1858.14000532893
1858.14000533252
1858.14000533725
1858.14000534436
1858.14000535702
1858.14000538421
1858.14000545466
1858.14000566524
1858.14000633263
1858.1400084344
1858.14001619611
1858.14000397627
1858.14000255124
1858.14000204558
1858.14000184014
1858.14000176829
1858.140001743
1858.1400017318
1858.14000172505
1858.14000171999
1858.14000171572
1858.14000171195
1858.14000170856
1858.1400017055
1858.14000170274
1858.14000170026
1858.14000169805
1858.14000169608
1858.14000169434
1858.14000169282
1858.14000169149
1858.14000169034
1858.14000168937
1858.14000168857
1858.14000168793
1858.14000168744
1858.14000168711
1858.14000168693
1858.14000168691
1858.14000168706
1858.14000168737
1858.14000168787
1858.14000168855
1858.14000168944
1858.14000169056
1858.1400016919
1858.14000169351
1858.1400016954
1858.14000169758
1858.14000170008
1858.14000170293
1858.14000170617
1858.14000170993
1858.14000171447
1858.14000172051
1858.14000173028
1858.14000175197
1858.1400018155
1858.14000200821
1858.14000254164
1858.14000443709
1858.14000146383
1858.14000116653
1858.14000102575
1858.14000094666
1858.14000091794
1858.14000090751
1858.14000090151
1858.14000089664
1858.14000089228
1858.14000088828
1858.14000088461
1858.14000088124
1858.14000087818
1858.14000087541
1858.14000087292
1858.14000087069
1858.14000086871
1858.14000086695
1858.1400008654
1858.14000086406
1858.1400008629
1858.14000086192
1858.14000086111
1858.14000086046
1858.14000085997
1858.14000085964
1858.14000085946
1858.14000085944
1858.14000085959
1858.14000085991
1858.14000086042
1858.14000086111
1858.14000086202
1858.14000086314
1858.1400008645
1858.14000086612
1858.14000086802
1858.14000087021
1858.1400008727
1858.14000087551
1858.14000087865
1858.14000088214
1858.14000088601
1858.14000089039
1858.1400008959
1858.14000090585
1858.14000093401
1858.1400010112
1858.14000115497
1858.14000157027
1858.14000086786
1858.1400008456
1858.14000079405
1858.14000074568
1858.14000072744
1858.14000072066
1858.14000071597
1858.14000071161
1858.14000070745
1858.14000070354
1858.14000069991
1858.14000069656
1858.1400006935
1858.14000069072
1858.14000068822
1858.14000068598
1858.14000068398
1858.14000068221
1858.14000068066
1858.1400006793
1858.14000067814
1858.14000067715
1858.14000067633
1858.14000067568
1858.14000067519
1858.14000067485
1858.14000067468
1858.14000067466
1858.14000067482
1858.14000067514
1858.14000067565
1858.14000067636
1858.14000067727
1858.1400006784
1858.14000067977
1858.1400006814
1858.1400006833
1858.1400006855
1858.14000068799
1858.14000069078
1858.14000069388
1858.14000069728
1858.14000070095
1858.14000070489
1858.14000070933
1858.14000071645
1858.1400007362
1858.14000078576
1858.14000083469
1858.14000088493
1858.14000072898
1858.14000077241
1858.1400007423
1858.14000070131
1858.14000068561
1858.14000067974
1858.14000067541
1858.14000067119
1858.14000066711
1858.14000066324
1858.14000065962
1858.14000065628
1858.14000065322
1858.14000065044
1858.14000064794
1858.14000064569
1858.14000064369
1858.14000064191
1858.14000064035
1858.14000063899
1858.14000063782
1858.14000063683
1858.14000063601
1858.14000063536
1858.14000063486
1858.14000063453
1858.14000063436
1858.14000063434
1858.1400006345
1858.14000063483
1858.14000063535
1858.14000063606
1858.14000063697
1858.14000063811
1858.14000063949
1858.14000064113
1858.14000064303
1858.14000064522
1858.14000064771
1858.1400006505
1858.14000065358
1858.14000065694
1858.14000066054
1858.14000066434
1858.14000066849
1858.14000067491
1858.14000069267
1858.14000073571
1858.14000076199
1858.14000072405
1858.14000069719
1858.14000075601
1858.14000073095
1858.1400006917
1858.14000067661
1858.14000067097
1858.14000066673
1858.14000066257
1858.14000065851
1858.14000065466
1858.14000065105
1858.14000064772
1858.14000064466
1858.14000064188
1858.14000063937
1858.14000063713
1858.14000063512
1858.14000063335
1858.14000063179
1858.14000063043
1858.14000062926
1858.14000062827
1858.14000062745
1858.14000062679
1858.1400006263
1858.14000062597
1858.1400006258
1858.14000062579
1858.14000062595
1858.14000062628
1858.1400006268
1858.14000062751
1858.14000062843
1858.14000062958
1858.14000063096
1858.14000063259
1858.1400006345
1858.1400006367
1858.14000063918
1858.14000064196
1858.14000064504
1858.14000064838
1858.14000065195
1858.14000065571
1858.14000065978
1858.14000066602
1858.14000068332
1858.14000072485
1858.14000074584
1858.14000068703
1858.14000069017
1858.14000075252
1858.14000072857
1858.14000068968
1858.14000067471
1858.1400006691
1858.14000066488
1858.14000066072
1858.14000065666
1858.14000065281
1858.14000064921
1858.14000064588
1858.14000064282
1858.14000064005
1858.14000063755
1858.14000063531
1858.14000063331
1858.14000063154
1858.14000062998
1858.14000062862
1858.14000062746
1858.14000062647
1858.14000062566
1858.14000062501
1858.14000062452
1858.14000062419
1858.14000062402
1858.14000062401
1858.14000062417
1858.14000062451
1858.14000062503
1858.14000062574
1858.14000062666
1858.14000062781
1858.14000062919
1858.14000063083
1858.14000063273
1858.14000063493
1858.14000063741
1858.14000064019
1858.14000064326
1858.1400006466
1858.14000065017
1858.14000065393
1858.14000065799
1858.14000066422
1858.14000068144
1858.14000072269
1858.14000074253
1858.14000067887
1858.14000068891
1858.14000075204
1858.14000072822
1858.14000068932
1858.1400006743
1858.14000066865
1858.14000066438
1858.1400006602
1858.14000065613
1858.14000065227
1858.14000064866
1858.14000064533
1858.14000064228
1858.14000063952
1858.14000063703
1858.14000063479
1858.1400006328
1858.14000063104
1858.14000062949
1858.14000062814
1858.14000062699
1858.14000062601
1858.1400006252
1858.14000062455
1858.14000062407
1858.14000062374
1858.14000062358
1858.14000062357
1858.14000062374
1858.14000062408
1858.1400006246
1858.14000062531
1858.14000062623
1858.14000062737
1858.14000062875
1858.14000063038
1858.14000063229
1858.14000063448
1858.14000063696
1858.14000063974
1858.14000064282
1858.14000064617
1858.14000064976
1858.14000065355
1858.14000065765
1858.14000066393
1858.14000068121
1858.1400007225
1858.14000074223
1858.14000067747
1858.14000068911
1858.14000075239
1858.14000072839
1858.14000068933
1858.14000067418
1858.14000066842
1858.14000066408
1858.14000065984
1858.14000065574
1858.14000065186
1858.14000064824
1858.14000064491
1858.14000064187
1858.14000063912
1858.14000063664
1858.14000063442
1858.14000063245
1858.1400006307
1858.14000062916
1858.14000062783
1858.14000062668
1858.14000062572
1858.14000062492
1858.14000062428
1858.1400006238
1858.14000062348
1858.14000062332
1858.14000062332
1858.14000062349
1858.14000062382
1858.14000062434
1858.14000062505
1858.14000062597
1858.1400006271
1858.14000062848
1858.14000063011
1858.140000632
1858.14000063419
1858.14000063667
1858.14000063946
1858.14000064255
1858.14000064592
1858.14000064955
1858.1400006534
1858.14000065758
1858.14000066397
1858.14000068138
1858.14000072285
1858.14000074278
1858.14000067778
1858.14000068981
1858.14000075309
1858.14000072876
1858.14000068944
1858.14000067409
1858.14000066819
1858.14000066373
1858.14000065941
1858.14000065525
1858.14000065134
1858.14000064771
1858.14000064438
1858.14000064135
1858.14000063861
1858.14000063615
1858.14000063395
1858.140000632
1858.14000063027
1858.14000062876
1858.14000062744
1858.14000062631
1858.14000062535
1858.14000062457
1858.14000062394
1858.14000062347
1858.14000062316
1858.140000623
1858.140000623
1858.14000062317
1858.14000062351
1858.14000062402
1858.14000062473
1858.14000062564
1858.14000062676
1858.14000062813
1858.14000062975
1858.14000063164
1858.14000063382
1858.1400006363
1858.14000063909
1858.1400006422
1858.14000064561
1858.1400006493
1858.14000065323
1858.14000065753
1858.14000066407
1858.14000068169
1858.14000072345
1858.14000074371
1858.14000067869
1858.14000069083
1858.14000075406
1858.14000072929
1858.14000068961
1858.14000067399
1858.14000066788
1858.14000066327
1858.14000065884
1858.14000065461
1858.14000065066
1858.14000064702
1858.14000064369
1858.14000064067
1858.14000063795
1858.14000063552
1858.14000063334
1858.14000063141
1858.14000062971
1858.14000062822
1858.14000062692
1858.14000062581
1858.14000062487
1858.1400006241
1858.14000062349
1858.14000062303
1858.14000062273
1858.14000062257
1858.14000062258
1858.14000062274
1858.14000062308
1858.14000062359
1858.14000062429
1858.14000062519
1858.14000062631
1858.14000062766
1858.14000062927
1858.14000063114
1858.14000063332
1858.1400006358
1858.1400006386
1858.14000064173
1858.14000064518
1858.14000064895
1858.14000065299
1858.14000065744
1858.1400006642
1858.14000068209
1858.14000072422
1858.14000074496
1858.14000067996
1858.14000069217
1858.14000075533
1858.14000072997
1858.14000068982
1858.14000067386
1858.14000066748
1858.14000066268
1858.14000065812
1858.14000065381
1858.14000064981
1858.14000064615
1858.14000064282
1858.14000063982
1858.14000063713
1858.14000063472
1858.14000063257
1858.14000063068
1858.140000629
1858.14000062754
1858.14000062627
1858.14000062519
1858.14000062427
1858.14000062352
1858.14000062292
1858.14000062247
1858.14000062217
1858.14000062203
1858.14000062204
1858.1400006222
1858.14000062253
1858.14000062304
1858.14000062373
1858.14000062461
1858.14000062572
1858.14000062706
1858.14000062865
1858.14000063051
1858.14000063267
1858.14000063514
1858.14000063795
1858.14000064111
1858.14000064462
1858.14000064848
1858.14000065265
1858.1400006573
1858.14000066432
1858.14000068257
1858.14000072519
1858.14000074654
1858.14000068158
1858.14000069386
1858.14000075691
1858.14000073082
1858.14000069008
1858.14000067368
1858.14000066699
1858.14000066196
1858.14000065724
1858.14000065283
1858.14000064878
1858.1400006451
1858.14000064178
1858.1400006388
1858.14000063613
1858.14000063376
1858.14000063165
1858.14000062979
1858.14000062816
1858.14000062673
1858.14000062549
1858.14000062443
1858.14000062354
1858.14000062281
1858.14000062223
1858.14000062179
1858.14000062151
1858.14000062137
1858.14000062138
1858.14000062154
1858.14000062187
1858.14000062236
1858.14000062304
1858.14000062392
1858.140000625
1858.14000062632
1858.14000062789
1858.14000062973
1858.14000063188
1858.14000063434
1858.14000063716
1858.14000064035
1858.14000064392
1858.14000064788
1858.14000065221
1858.1400006571
1858.14000066444
1858.14000068313
1858.14000072636
1858.14000074847
1858.14000068358
1858.14000069596
1858.14000075888
1858.14000073185
1858.14000069038
1858.14000067345
1858.14000066638
1858.14000066108
1858.14000065618
1858.14000065166
1858.14000064756
1858.14000064387
1858.14000064056
1858.14000063761
1858.14000063498
1858.14000063265
1858.14000063058
1858.14000062877
1858.14000062717
1858.14000062578
1858.14000062458
1858.14000062355
1858.14000062269
1858.14000062198
1858.14000062142
1858.140000621
1858.14000062073
1858.14000062059
1858.14000062061
1858.14000062077
1858.14000062109
1858.14000062158
1858.14000062224
1858.1400006231
1858.14000062416
1858.14000062545
1858.140000627
1858.14000062882
1858.14000063094
1858.1400006334
1858.14000063621
1858.14000063943
1858.14000064306
1858.14000064714
1858.14000065166
1858.14000065682
1858.14000066454
1858.14000068376
1858.14000072775
1858.14000075081
1858.14000068602
1858.14000069855
1858.14000076128
1858.14000073309
1858.14000069071
1858.14000067315
1858.14000066564
1858.14000066003
1858.14000065494
1858.14000065031
1858.14000064615
1858.14000064245
1858.14000063916
1858.14000063624
1858.14000063366
1858.14000063138
1858.14000062937
1858.1400006276
1858.14000062606
1858.14000062471
1858.14000062355
1858.14000062255
1858.14000062172
1858.14000062104
1858.1400006205
1858.1400006201
1858.14000061983
1858.14000061971
1858.14000061973
1858.14000061989
1858.1400006202
1858.14000062067
1858.14000062132
1858.14000062215
1858.14000062319
1858.14000062446
1858.14000062597
1858.14000062776
1858.14000062986
1858.14000063229
1858.14000063511
1858.14000063835
1858.14000064204
1858.14000064624
1858.14000065096
1858.14000065643
1858.1400006646
1858.14000068447
1858.14000072938
1858.14000075363
1858.14000068899
1858.14000070174
1858.1400007642
1858.14000073456
1858.14000069108
1858.14000067277
1858.14000066474
1858.1400006588
1858.14000065349
1858.14000064875
1858.14000064455
1858.14000064084
1858.14000063758
1858.14000063471
1858.14000063218
1858.14000062996
1858.14000062801
1858.1400006263
1858.14000062481
1858.14000062351
1858.14000062239
1858.14000062144
1858.14000062064
1858.14000061998
1858.14000061947
1858.14000061909
1858.14000061884
1858.14000061872
1858.14000061874
1858.1400006189
1858.1400006192
1858.14000061966
1858.14000062029
1858.1400006211
1858.14000062211
1858.14000062334
1858.14000062482