/*--------------------------------*- C++ -*----------------------------------*\
  =========                 |
  \\      /  F ield         | OpenFOAM: The Open Source CFD Toolbox
   \\    /   O peration     | Website:  https://openfoam.org
    \\  /    A nd           | Version:  10
     \\/     M anipulation  |
\*---------------------------------------------------------------------------*/
FoamFile
{
    format      ascii;
    class       volScalarField;
    location    "3.6";
    object      k;
}
// * * * * * * * * * * * * * * * * * * * * * * * * * * * * * * * * * * * * * //

dimensions      [0 2 -2 0 0 0 0];

internalField   nonuniform List<scalar> 
2500
(
2.26947527369553e-09
4.36884903432845e-08
1.81466237880857e-07
2.99269514018631e-07
3.82407240992279e-07
4.33201938962626e-07
4.60476193206323e-07
4.73511856055851e-07
4.79122774213169e-07
4.81320769250087e-07
4.82111706521736e-07
4.82375216364892e-07
4.8245697497678e-07
4.82480634601143e-07
4.82486948068973e-07
4.82488405104952e-07
4.82488589527544e-07
4.8248848313523e-07
4.82488334576797e-07
4.82488193259279e-07
4.82488069127159e-07
4.82487962810119e-07
4.8248787333736e-07
4.82487799818761e-07
4.82487741901409e-07
4.82487700536588e-07
4.82487680756793e-07
4.82487682636761e-07
4.8248768998618e-07
4.82487704029275e-07
4.82487734153355e-07
4.82487777947846e-07
4.82487817374981e-07
4.82487752971033e-07
4.82487153868235e-07
4.82484532483986e-07
4.82474917388331e-07
4.82442173023222e-07
4.82337116235373e-07
4.82019467435701e-07
4.81117869408846e-07
4.78729834469332e-07
4.72870844661143e-07
4.59670751439406e-07
4.32634611099997e-07
3.82860709101195e-07
3.01516434892854e-07
1.85183369401515e-07
4.56778974332024e-08
2.45851906481649e-09
5.50102554451869e-08
1.23577486413129e-06
5.24692835865919e-06
8.6768510271881e-06
1.11204814713728e-05
1.26320960718677e-05
1.3455147267403e-05
1.38543259678359e-05
1.40287061782774e-05
1.40980218030216e-05
1.41233207501709e-05
1.41318652833852e-05
1.41345516918421e-05
1.4135339592021e-05
1.41355532450237e-05
1.41356040631919e-05
1.41356115735043e-05
1.41356088563403e-05
1.41356045532165e-05
1.41356003819104e-05
1.41355967030423e-05
1.41355935512393e-05
1.41355909003882e-05
1.41355887239989e-05
1.41355870121092e-05
1.41355857973213e-05
1.41355852328246e-05
1.41355852674776e-05
1.41355854296589e-05
1.41355858732225e-05
1.41355867842786e-05
1.41355880642364e-05
1.41355890896838e-05
1.41355863686029e-05
1.41355653814428e-05
1.41354770756351e-05
1.41351579250905e-05
1.41340829291048e-05
1.41306709721345e-05
1.41204690212553e-05
1.40918488168615e-05
1.40169668380422e-05
1.38355762333577e-05
1.34322380810012e-05
1.26169725364195e-05
1.1135238481334e-05
8.74211616946304e-06
5.35206071802476e-06
1.29012896158465e-06
5.93242894525295e-08
1.91654190683997e-07
5.4525925673053e-06
2.60335918287392e-05
4.28317988580287e-05
5.47122410014592e-05
6.20679527254354e-05
6.60967848735047e-05
6.80686203924832e-05
6.89394364486408e-05
6.92896704296086e-05
6.94190501144073e-05
6.94632800380419e-05
6.94773566087565e-05
6.94815383985886e-05
6.9482690344772e-05
6.94829725048845e-05
6.94830200243233e-05
6.94830102655408e-05
6.94829910301923e-05
6.94829718447678e-05
6.94829547973233e-05
6.94829401525517e-05
6.94829278160228e-05
6.94829176740252e-05
6.94829096846388e-05
6.94829040035454e-05
6.9482901324082e-05
6.94829012760131e-05
6.94829019121914e-05
6.94829038952008e-05
6.94829080107647e-05
6.94829136311741e-05
6.94829174388142e-05
6.94829003036174e-05
6.94827861908139e-05
6.94823212394781e-05
6.94806583812889e-05
6.9475100481186e-05
6.94575885440076e-05
6.94056172518793e-05
6.92609573921492e-05
6.88855532788681e-05
6.79837414231349e-05
6.59945752982397e-05
6.20018549560474e-05
5.477880902847e-05
4.31201830012215e-05
2.64980176942067e-05
5.66353370144788e-06
2.03814973000431e-07
3.33661982288995e-07
9.56120147187786e-06
4.55058406330971e-05
7.42689079971633e-05
9.43959729963092e-05
0.000106791887009051
0.000113572186719084
0.00011689511217261
0.000118367105312224
0.000118961593466719
0.000119182278548973
0.000119258133016575
0.000119282418428166
0.000119289681800272
0.000119291700228524
0.000119292202932101
0.000119292293119005
0.00011929228084341
0.000119292250976318
0.000119292220531627
0.000119292193304183
0.000119292169840215
0.000119292150023408
0.000119292133682509
0.000119292120745966
0.000119292111421986
0.000119292106564017
0.000119292105996316
0.00011929210750666
0.000119292110158488
0.00011929211642334
0.000119292124958517
0.000119292130413439
0.000119292100529096
0.000119291910452223
0.000119291140065239
0.000119288379491089
0.000119279128473284
0.000119249902692666
0.000119162957528203
0.000118920449274532
0.000118290061457344
0.00011677363842835
0.000113424443980854
0.000106690200326155
9.44711258578583e-05
7.46420408958796e-05
4.6117077743146e-05
9.83952595646342e-06
3.49554888871609e-07
4.65792258296049e-07
1.33623071991154e-05
6.31518833182966e-05
0.000102384291749857
0.000129616686205442
0.000146323831689984
0.000155454768863588
0.00015993540043406
0.000161925544892959
0.000162732213368219
0.000163032957133832
0.000163136834174759
0.000163170272537783
0.000163180336615462
0.000163183156905524
0.000163183870887197
0.000163184006679207
0.000163183996601008
0.000163183960418308
0.000163183922443068
0.000163183888193548
0.00016318385855209
0.000163183833426693
0.00016318381261615
0.000163183796023048
0.00016318378384302
0.000163183776839745
0.000163183775512903
0.000163183776994134
0.000163183780238018
0.000163183787547356
0.000163183797422563
0.000163183802680418
0.000163183760194216
0.00016318350640396
0.000163182485258998
0.000163178820931158
0.000163166510910226
0.000163127516826394
0.000163011218285807
0.000162686115170051
0.000161839444950096
0.000159799595316031
0.000155288139491405
0.000146202770468889
0.000129678953893154
0.00010275722779014
6.37765863482047e-05
1.36546677492945e-05
4.82906258701453e-07
5.82672612895785e-07
1.67332214773453e-05
7.85962399661716e-05
0.000126737516557441
0.000159949620656913
0.000180269643410664
0.000191371559384728
0.000196826704345017
0.000199255734219291
0.000200243551021548
0.000200613276052326
0.000200741548126909
0.000200783046545395
0.000200795610130009
0.000200799158967699
0.00020080007140286
0.000200800254585621
0.000200800251343281
0.000200800212936756
0.000200800170970834
0.000200800132702079
0.000200800099395956
0.000200800071027048
0.00020080004739079
0.000200800028371088
0.00020080001411504
0.000200800005265775
0.000200800002579532
0.000200800003518363
0.000200800007028421
0.000200800014283176
0.000200800023965253
0.00020080002715996
0.00020079997181725
0.000200799664029481
0.000200798437883702
0.000200794036638001
0.00020077922285511
0.000200732191681477
0.000200591616699954
0.000200197890338367
0.000199170842931419
0.000196693170933953
0.000191207304686207
0.000180146691195597
0.000159996476350876
0.000127071809099425
7.91673690902853e-05
1.70115357801548e-05
5.99617560037389e-07
6.81936148675458e-07
1.96098281773037e-05
9.16677000296008e-05
0.000147187712232218
0.000185315511809359
0.000208599884451014
0.000221322079786679
0.000227582020431566
0.00023037586185645
0.000231515450021552
0.000231943494686341
0.00023209259954103
0.000232141058352918
0.000232155808759798
0.000232160006238222
0.000232161100994542
0.000232161331805079
0.000232161339114908
0.000232161301915553
0.000232161258980056
0.000232161219266017
0.000232161184453451
0.00023216115461729
0.000232161129573137
0.000232161109196789
0.000232161093578176
0.000232161083225422
0.000232161078828455
0.000232161078878268
0.000232161082106299
0.000232161088309596
0.000232161096532792
0.000232161096165243
0.00023216102786309
0.000232160674386964
0.000232159282520444
0.000232154289664079
0.000232137461176851
0.000232083934744728
0.000231923652106345
0.000231473994826332
0.000230299459698232
0.000227462948597079
0.000221177154625675
0.000208493016012165
0.000185357782202723
0.000147478038675317
9.2163885825847e-05
1.98628118639482e-05
6.98058722299519e-07
7.63116285806207e-07
2.19766822370394e-05
0.000102375626013944
0.000163845922971638
0.000205919863994873
0.000231583818828021
0.000245610584353106
0.000252521862868527
0.000255612955094517
0.000256877198131556
0.000257353574544096
0.000257520115853062
0.000257574464403792
0.000257591088979008
0.00025759585192725
0.00025759711031786
0.000257597387241876
0.000257597407593604
0.000257597374126674
0.000257597332544932
0.000257597293383303
0.000257597258747356
0.000257597228835013
0.00025759720350059
0.000257597182623386
0.000257597166242895
0.000257597154712833
0.000257597148568511
0.000257597147366615
0.000257597149537674
0.000257597154170709
0.000257597160051348
0.000257597154896859
0.000257597073681404
0.00025759668218252
0.00025759515862961
0.000257589699546547
0.000257571281601828
0.000257512612191133
0.000257336662409672
0.000256842382864339
0.00025554984955289
0.000252425682030044
0.000245497877644609
0.00023150986080692
0.000205975764349336
0.000164107735776646
0.000102805033136448
2.22041003529304e-05
7.78260270073468e-07
8.2716349158311e-07
2.38571396168835e-05
0.000110872852451476
0.000177015752284817
0.000222182085797125
0.000249713585217383
0.000264768231821783
0.000272195634240408
0.00027552393272125
0.000276888459289405
0.000277404069106247
0.000277584904099127
0.000277644133216411
0.000277662330348738
0.000277667575667811
0.00027766897731601
0.00027766929744347
0.000277669332243484
0.0002776693039856
0.000277669265345549
0.000277669228132343
0.000277669194861856
0.000277669165865632
0.00027766914104942
0.000277669120306319
0.00027766910364022
0.000277669091272159
0.000277669083605904
0.000277669080705651
0.000277669081222318
0.000277669084059081
0.000277669087229006
0.000277669076478385
0.000277668982778495
0.000277668560478485
0.000277666934184097
0.000277661115154268
0.00027764147010623
0.00027757881805706
0.000277390692272262
0.000276861622054975
0.000275476858576161
0.000272127473367774
0.000264696559773455
0.000249686438861405
0.000222271593555648
0.000177274243890014
0.000111259419382215
2.40650717762883e-05
8.41474018407535e-07
8.75984563085488e-07
2.53017179988198e-05
0.000117410273879168
0.000187126787161972
0.00023465814314264
0.000263621879680011
0.000279468547627005
0.000287296109645408
0.000290809671502646
0.000292253171821512
0.000292799959352251
0.000292992265152869
0.000293055453152029
0.000293074941613099
0.000293080589363132
0.000293082113132464
0.00029308247273314
0.000293082522737504
0.000293082499825066
0.000293082465006092
0.000293082430571465
0.000293082399391896
0.000293082371931286
0.000293082348152709
0.000293082327970448
0.000293082311368512
0.000293082298474077
0.000293082289559035
0.000293082284767742
0.000293082283394845
0.000293082284145706
0.000293082284161479
0.000293082267057551
0.000293082162728847
0.000293081716292233
0.000293080011416083
0.000293073920534334
0.00029305334973352
0.000292987685508421
0.000292790320770813
0.000292234774303082
0.000290779662928682
0.000287258239367781
0.000279442732385681
0.000263651173068335
0.000234798562294603
0.000187408163363521
0.000117782765588216
2.54987439187117e-05
8.89746264586902e-07
9.11993938874827e-07
2.63761568535412e-05
0.000122290919247544
0.000194669824072344
0.000243966150778055
0.000274002867110487
0.000290446114189026
0.000298577100442673
0.000302232216886009
0.000303736571824564
0.000304307605453709
0.0003045089202064
0.000304575250819743
0.000304595776822798
0.000304601752893294
0.000304603378348242
0.000304603772457258
0.000304603836167524
0.000304603819653863
0.000304603789013686
0.000304603757723508
0.000304603728977499
0.000304603703364236
0.000304603680904258
0.000304603661536648
0.000304603645237838
0.000304603632073482
0.000304603622207176
0.000304603615740477
0.000304603612335186
0.000304603610631185
0.000304603607215168
0.000304603584396502
0.000304603471909193
0.000304603006412785
0.000304601242647344
0.0003045949511291
0.000304573698544848
0.000304505811378987
0.00030430160825883
0.000303726411603113
0.00030221897987712
0.000298569430913313
0.000290467312246626
0.000274093349942284
0.000244169364785383
0.000194995511786956
0.000122675378482393
2.65706391955542e-05
9.25512256932383e-07
9.3773158731176e-07
2.71509213217498e-05
0.000125830055306997
0.000200141747683483
0.000250723404577801
0.000281545262855961
0.000298427699076057
0.000306783647278195
0.000310544551289473
0.000312094781236728
0.000312684264002516
0.000312892502284454
0.000312961273988115
0.00031298261560569
0.000312988853615449
0.000312990562023252
0.000312990985054487
0.000312991060995121
0.000312991050717756
0.000312991024211515
0.000312990996083852
0.000312990969825397
0.000312990946137685
0.000312990925094927
0.000312990906661503
0.000312990890814265
0.000312990877582127
0.00031299086705438
0.000312990859283019
0.000312990854014421
0.000312990850095166
0.000312990843457425
0.000312990816197883
0.000312990696857582
0.000312990216660762
0.000312988409702379
0.000312981973599488
0.000312960231183387
0.000312890744255685
0.000312681606430226
0.000312092193694777
0.000310546835588679
0.000306804289626781
0.000298494006091601
0.000281696993221824
0.000250994868214332
0.000200525544316472
0.000126245675551236
2.73494333208729e-05
9.51261078410932e-07
9.5558461865305e-07
2.76932932558752e-05
0.000128325224672204
0.000204004740576692
0.000255499995431123
0.00028688305609873
0.000304081498176518
0.000312600528406932
0.000316438756793201
0.000318022818874954
0.000318626037416221
0.000318839482485701
0.000318910109762326
0.000318932078733557
0.000318938521112902
0.000318940295654489
0.000318940742223529
0.000318940828544805
0.000318940824001504
0.0003189408013206
0.000318940776144734
0.000318940752236142
0.000318940730395918
0.000318940710745458
0.000318940693272679
0.000318940677959118
0.000318940664813565
0.000318940653878322
0.00031894064516535
0.000318940638448782
0.000318940632643109
0.00031894062341485
0.00031894059255823
0.000318940467756551
0.000318939976501786
0.000318938138591864
0.000318931600815441
0.000318909515203731
0.000318838905883171
0.000318626297082833
0.000318026860798704
0.000316454710410065
0.000312646384226466
0.00030418875502144
0.000287092221070777
0.000255839154745497
0.000204452395605393
0.000128783100963365
2.7900035864233e-05
9.69298686274448e-07
9.67620715969733e-07
2.8062405935243e-05
0.000130037377258929
0.000206661065939875
0.000258790365555451
0.0002905653686498
0.000307986086287107
0.000316620733821178
0.000320514252184841
0.000322122727793496
0.000322735954481097
0.000322953232093464
0.000323025239968133
0.000323047681214703
0.000323054279578883
0.000323056105575967
0.000323056570803733
0.00032305666571279
0.000323056666163895
0.00032305664684054
0.00032305662427701
0.000323056602471404
0.000323056582309285
0.000323056563951809
0.000323056547407078
0.000323056532662927
0.000323056519717894
0.000323056508585988
0.000323056499249363
0.000323056491483197
0.000323056484217546
0.000323056472991778
0.000323056439362418
0.000323056310395414
0.000323055811067587
0.000323053951522069
0.000323047344001869
0.00032302502391527
0.0003229536468722
0.00032273865819087
0.000322132333133048
0.00032054173495341
0.000316688056162048
0.000308128757135707
0.000290825465877209
0.00025919199477499
0.00020717149900957
0.000130541255411538
2.82793254561714e-05
9.8161104349903e-07
9.75518760478889e-07
2.83069432532229e-05
0.000131182096791789
0.00020844190921284
0.000261001077758422
0.000293043656233097
0.000310617274701937
0.000319332111433935
0.000323264317669624
0.000324890036837958
0.000325510402315345
0.000325730441958857
0.000325803455624817
0.000325826244975707
0.000325832959878241
0.000325834825022885
0.000325835304732543
0.000325835406530952
0.000325835411139564
0.000325835394647011
0.000325835374309951
0.000325835354319101
0.000325835335628967
0.00032583531843244
0.000325835302754105
0.000325835288588148
0.000325835275928172
0.000325835264771555
0.000325835255079528
0.000325835246618169
0.000325835238313139
0.000325835225634515
0.000325835189976376
0.000325835057975274
0.000325834552947263
0.000325832678672572
0.000325826024498866
0.000325803548183772
0.000325731659054906
0.00032551507922749
0.000324904137824608
0.000323301153973909
0.000319416983595784
0.00031078926540224
0.00029334674954955
0.000261456993549592
0.000209009230236298
0.000131730184666738
2.85342315816058e-05
9.89811353128281e-07
9.80570300805989e-07
2.84648618152941e-05
0.000131928637538912
0.000209607085478588
0.0002624511491834
0.00029467239350258
0.000312348927568778
0.000321118202666379
0.000325076913055843
0.000326714559079291
0.00032733991191775
0.000327561901404148
0.000327635632882636
0.000327658673589066
0.000327665473779312
0.000327667368093766
0.000327667858813098
0.000327667966004642
0.000327667973972826
0.000327667959798614
0.00032766794131157
0.000327667922850618
0.000327667905424682
0.000327667889251267
0.00032766787436758
0.000327667860773144
0.000327667848459718
0.000327667837414934
0.000327667827585692
0.00032766781872708
0.000327667809754299
0.000327667796095765
0.000327667759040719
0.000327667624938596
0.000327667116033266
0.00032766523201061
0.000327658547413039
0.000327635969556799
0.000327563747193281
0.000327346129502211
0.000326732169985507
0.000325121072859902
0.000321216899114402
0.000312544246300669
0.000295010215817343
0.000262951864022049
0.000210222731561829
0.000132515699159998
2.87015742886566e-05
9.95147239108668e-07
9.83723708074954e-07
2.85643974151873e-05
0.000132404068529327
0.000210351855870755
0.000263380629016126
0.000295718636382489
0.00031346299498921
0.000322268466092704
0.000326244964431837
0.000327890693664029
0.00032851946114044
0.000328742799752375
0.000328817033385594
0.00032884025201246
0.000328847113398113
0.000328849029025145
0.000328849527960292
0.000328849639318876
0.000328849649972121
0.000328849637656864
0.000328849620688162
0.000328849603505231
0.000328849587158469
0.000328849571883715
0.000328849557727561
0.000328849544693603
0.000328849532773133
0.000328849521948218
0.000328849512156094
0.000328849503142232
0.000328849493811074
0.000328849479564675
0.000328849441626347
0.000328849306160665
0.000328848794735514
0.000328846904463663
0.000328840200540799
0.000328817558294471
0.000328745124265045
0.000328526845687432
0.00032791095969916
0.000326294673376138
0.000322377684895226
0.00031367620842756
0.000296083410292702
0.000263916671618547
0.000211006402494053
0.000133023286215383
2.88090143026104e-05
9.98543490608093e-07
9.85647365926169e-07
2.86257030868468e-05
0.000132700050602234
0.000210817392821902
0.000263963410865579
0.000296376160350732
0.000314164315778752
0.000322993374798905
0.000326981576496744
0.000328632677213998
0.000329263737330803
0.000329487991481146
0.000329562569693264
0.000329585911877714
0.000329592816361109
0.000329594747286482
0.000329595252260977
0.000329595366849746
0.000329595379660747
0.00032959536878497
0.000329595353059623
0.000329595336946579
0.000329595321525624
0.000329595307045812
0.00032959529355987
0.000329595281074642
0.000329595269581504
0.000329595259059314
0.000329595249439028
0.000329595240458538
0.000329595231013388
0.000329595216488472
0.000329595178066563
0.000329595041797134
0.000329594528832374
0.00032959263470553
0.000329585918848246
0.000329563236769864
0.000329490671446437
0.00032927198175204
0.000328654894279929
0.000327035364607181
0.000323110352405615
0.000314390801460265
0.000296761101574436
0.000264526207352624
0.000211501840066021
0.000133344406593465
2.88765511897709e-05
1.00066040138944e-06
9.86795349514011e-07
2.86626395608558e-05
0.000132880354234783
0.000211102223450625
0.000264321161081321
0.000296780808957862
0.00031459669631157
0.000323440832490868
0.00032743658843965
0.000329091191651809
0.00032972376241262
0.000329948626369836
0.000330023436697382
0.000330046863144471
0.000330053797465478
0.000330055739214131
0.000330056248571963
0.000330056365770858
0.000330056380397483
0.000330056370495468
0.000330056355795191
0.000330056340591705
0.00033005632597932
0.00033005631221558
0.000330056299357003
0.000330056287412728
0.000330056276374571
0.00033005626621969
0.000330056256874806
0.000330056248072344
0.000330056238701012
0.000330056224134765
0.0003300561855318
0.00033005604887231
0.000330055535059807
0.00033005363868142
0.000330046915696012
0.000330024209613007
0.000329951564762956
0.000329732625120679
0.00032911480500739
0.000327493292821461
0.0003235633662471
0.000314832725798449
0.000297180348023167
0.000264903496694613
0.000211808745273214
0.000133543489538722
2.89181583020346e-05
1.00195387243571e-06
9.8746604072054e-07
2.8684424524439e-05
0.000132987901344806
0.000211272915031498
0.000264536318792734
0.00029702483247938
0.000314857950810619
0.000323711546500577
0.000327712089759977
0.000329368935615027
0.000330002483957601
0.000330227746881041
0.000330302710827499
0.00033032619376542
0.00033033314843042
0.000330335097755253
0.000330335610265523
0.000330335729451739
0.000330335745433546
0.000330335736517852
0.00033033572268962
0.000330335708277653
0.000330335694387918
0.000330335681283149
0.000330335669021448
0.000330335657613543
0.000330335647052068
0.000330335637313409
0.000330335628321448
0.000330335619804732
0.000330335610646947
0.000330335596215267
0.000330335557653511
0.000330335420901901
0.000330334906720431
0.000330333009145312
0.000330326282094696
0.000330303561981277
0.000330230870168762
0.000330011782080662
0.000329393525143449
0.000327770827405689
0.000323837954939828
0.000315100653121374
0.000297434626219416
0.000265132470344541
0.000211995168507187
0.000133664531505811
2.89433000760478e-05
1.0027292616216e-06
9.87849579489432e-07
2.86970002375536e-05
0.000133050704900841
0.000211373098729798
0.000264663093022994
0.000297169039950905
0.000315012668593499
0.000323872092819654
0.000327875616415436
0.000329533873267669
0.000330168043357542
0.00033039356286565
0.000330468626781737
0.000330492146991481
0.00033049911534586
0.00033050106994386
0.000330501584739987
0.000330501705393193
0.000330501722537725
0.000330501714510897
0.000330501701446587
0.000330501687743692
0.000330501674517769
0.000330501662034541
0.000330501650351402
0.000330501639480137
0.000330501629414845
0.000330501620131732
0.000330501611552892
0.000330501603403889
0.000330501594565263
0.00033050158039978
0.000330501542043477
0.000330501405415468
0.000330500891197833
0.000330498993119664
0.000330492263937923
0.000330469535984607
0.000330396817319456
0.000330177643431478
0.000329559132393282
0.000327935741956307
0.000324001142431455
0.000315259924405227
0.000297585852964939
0.000265268745431128
0.000212106231466577
0.000133736722107232
2.89582063859714e-05
1.00318546353082e-06
9.88063615294879e-07
2.87040847549864e-05
0.0001330865118666
0.000211430546053048
0.00026473611041364
0.000297252377446607
0.000315102295353324
0.000323965245164083
0.000327970591266383
0.000329629720591097
0.000330264279450256
0.000330489961237965
0.000330565089155412
0.000330588633582792
0.000330595611040862
0.000330597569299298
0.000330598085779264
0.000330598207563935
0.00033059822568579
0.000330598218443291
0.000330598206060803
0.000330598193006496
0.000330598180402165
0.000330598168514839
0.000330598157398659
0.000330598147066212
0.000330598137513714
0.000330598128717742
0.000330598120599332
0.000330598112881897
0.000330598104443626
0.000330598090644945
0.00033059805261855
0.000330597916274458
0.000330597402258873
0.00033059550414492
0.000330588774067227
0.000330566042117236
0.000330493308936207
0.000330274087491154
0.000329655433668739
0.000328031650555829
0.000324096065872591
0.000315352603232596
0.000297673902704496
0.000265348160560369
0.000212171033783109
0.000133778901657568
2.89668686151192e-05
1.00344866535175e-06
9.88178705156968e-07
2.8707931772461e-05
0.000133106213946978
0.000211462389824306
0.000264776817131037
0.000297299037751579
0.000315152630755581
0.000324017666746853
0.000328024104739607
0.000329683763429684
0.000330318561024213
0.000330544343663134
0.000330619511860475
0.000330643071771991
0.000330650055208297
0.00033065201599776
0.000330652533728062
0.000330652656403975
0.000330652675343558
0.00033065266878787
0.000330652657017893
0.000330652644562637
0.000330652632546141
0.000330652621235258
0.000330652610678137
0.000330652600888212
0.000330652591864449
0.000330652583584413
0.000330652575968424
0.000330652568738369
0.000330652560770745
0.000330652547425032
0.000330652509833521
0.00033065237390603
0.0003306518602813
0.000330649962475013
0.000330643232340935
0.000330620498877376
0.000330547758931657
0.000330328513579544
0.000329709785146834
0.000328085791952114
0.000324149671790273
0.000315404975155048
0.000297723707753354
0.00026539314425585
0.000212207808293764
0.000133802889767628
2.8971774523305e-05
1.00359683361732e-06
9.88235419531025e-07
2.87098502191668e-05
0.000133116215531628
0.000211478766921584
0.000264797962615884
0.000297323454308035
0.000315179105900123
0.000324045331857736
0.00032805240351276
0.000329712374993287
0.000330347315650293
0.000330573159538917
0.000330648352532021
0.000330671922130345
0.000330678909411671
0.000330680871920818
0.000330681390565029
0.000330681513934289
0.000330681533543072
0.000330681527573846
0.000330681516343932
0.000330681504434795
0.000330681492968429
0.000330681482210065
0.00033068147219982
0.000330681462952563
0.000330681454470343
0.000330681446731803
0.000330681439656804
0.000330681432966055
0.000330681425534948
0.000330681412722787
0.000330681375664045
0.000330681240275488
0.000330680727210668
0.000330678830000975
0.000330672100462489
0.000330649367283776
0.000330576625907379
0.000330357372337491
0.000329738613332364
0.000328114525717426
0.000324178150840888
0.000315432844607938
0.00029775027495183
0.000265417216784178
0.000212227567911662
0.000133815841721865
2.89744232148283e-05
1.00367666773031e-06
9.88255202114577e-07
2.87105380861553e-05
0.000133119974425631
0.000211485193850711
0.000264806532215832
0.000297333581072468
0.000315190261558721
0.000324057107611602
0.000328064521760423
0.000329724669285363
0.000330359692224589
0.000330585572208258
0.000330660780257887
0.000330684356004316
0.000330691345931268
0.000330693309794732
0.000330693829279783
0.000330693953342545
0.000330693973631997
0.000330693968271772
0.000330693957607875
0.00033069394627002
0.000330693935374273
0.000330693925182799
0.000330693915729803
0.00033069390703266
0.000330693899095773
0.000330693891898251
0.000330693885359109
0.000330693879197457
0.000330693872286727
0.000330693859985689
0.000330693823431944
0.000330693688554754
0.000330693176042415
0.00033069127950885
0.000330684550948715
0.000330661819394419
0.000330589080753643
0.000330369831011422
0.0003297510740912
0.000328126974837611
0.000324190540101871
0.000315445046972634
0.000297762014668108
0.000265427982929436
0.000212236534848038
0.000133821820601499
2.89756666358646e-05
1.0037146164393e-06
9.88246056664948e-07
2.87102620166952e-05
0.000133118895804519
0.000211483991073097
0.000264805527939542
0.000297332886793674
0.000315189859332915
0.000324056924243152
0.000328064478765228
0.000329724706178726
0.000330359770045982
0.000330585669636278
0.000330660886637772
0.000330684466517311
0.000330691458580418
0.000330693423801032
0.000330693944293554
0.000330694069239416
0.000330694090373364
0.000330694085764265
0.000330694075788137
0.000330694065121721
0.000330694054871579
0.000330694045295674
0.000330694036429238
0.000330694028292484
0.000330694020890294
0.000330694014201113
0.000330694008141974
0.000330694002428971
0.000330693995931755
0.000330693984006627
0.000330693947794282
0.000330693813241916
0.000330693301095768
0.000330691405132266
0.000330684677775905
0.000330661949116428
0.00033058921743837
0.000330369983539931
0.000329751259934782
0.000328127224464664
0.000324190899295525
0.000315445571810453
0.000297762752742068
0.00026542893665035
0.000212237607226825
0.000133822754724869
2.89759176338471e-05
1.00372375301217e-06
9.88205598949683e-07
2.87089583954501e-05
0.00013311275758428
0.000211474926980213
0.000264794768719158
0.000297321257608685
0.000315177846932259
0.000324044775641717
0.000328052298102694
0.000329712525577385
0.000330347597818965
0.000330573504221182
0.000330648725457076
0.000330672307841318
0.000330679301524891
0.000330681267966611
0.000330681789469144
0.000330681915332409
0.000330681937327607
0.000330681933487888
0.000330681924216507
0.000330681914237375
0.00033068190464222
0.000330681895683427
0.000330681887403784
0.00033068187982515
0.000330681872951231
0.000330681866759106
0.000330681861163193
0.000330681855875537
0.000330681849760871
0.000330681838172665
0.000330681802256914
0.000330681667990104
0.000330681156213862
0.000330679260986759
0.000330672535518992
0.000330649811933641
0.000330577093411955
0.000330357891674508
0.000329739241606229
0.000328115362682942
0.000324179346545769
0.000315434582676228
0.000297752710283434
0.000265420354972738
0.000212231090829858
0.000133818899589944
2.89752379290725e-05
1.00370590971955e-06
9.88121886013505e-07
2.87062397742436e-05
0.000133099680928908
0.000211455163095373
0.000264770836538636
0.000297294958014243
0.000315150335102158
0.000324016708283494
0.000328024004300523
0.00032968414990682
0.000330319197226821
0.000330545097887029
0.000330620318825742
0.000330643902095731
0.000330650896785486
0.00033065286417252
0.000330653386543856
0.000330653513220551
0.000330653535978457
0.000330653532827814
0.000330653524192065
0.000330653514846644
0.00033065350586356
0.000330653497488316
0.000330653489772702
0.000330653482739624
0.000330653476391306
0.000330653470703527
0.000330653465588
0.000330653460752188
0.000330653455055659
0.00033065344385006
0.000330653408292485
0.000330653274407991
0.000330652763194611
0.000330650869179737
0.000330644146900256
0.000330621431985353
0.000330548736290388
0.000330329591511928
0.000329711075016843
0.000328087488902062
0.000324152069999724
0.000315408434728105
0.000297728531006048
0.000265399337616734
0.000212214743238657
0.000133808889687117
2.89733734400783e-05
1.0036546149036e-06
9.87968061860069e-07
2.87012552530013e-05
0.000133075649328695
0.000211418569771961
0.000264726246012722