/*--------------------------------*- C++ -*----------------------------------*\
  =========                 |
  \\      /  F ield         | OpenFOAM: The Open Source CFD Toolbox
   \\    /   O peration     | Website:  https://openfoam.org
    \\  /    A nd           | Version:  10
     \\/     M anipulation  |
\*---------------------------------------------------------------------------*/
FoamFile
{
    format      ascii;
    class       volScalarField;
    location    "3.6";
    object      nut;
}
// * * * * * * * * * * * * * * * * * * * * * * * * * * * * * * * * * * * * * //

dimensions      [0 2 -1 0 0 0 0];

internalField   nonuniform List<scalar> 
2500
(
1.76952511551505e-14
3.40599965360355e-13
1.41479800798297e-12
2.33330343665603e-12
2.98152941902778e-12
3.37757566671813e-12
3.59023216213801e-12
3.69187042961697e-12
3.73561829355026e-12
3.75275583701123e-12
3.75892270505074e-12
3.76097727499806e-12
3.76161474724944e-12
3.76179923381726e-12
3.76184847380069e-12
3.76185985078134e-12
3.7618612970104e-12
3.76186047802209e-12
3.76185933176242e-12
3.76185823818942e-12
3.76185727773207e-12
3.76185645553197e-12
3.76185576367076e-12
3.76185519359711e-12
3.76185474552288e-12
3.76185442659264e-12
3.76185427362914e-12
3.76185428931242e-12
3.76185434701996e-12
3.7618544555514e-12
3.76185468878543e-12
3.7618550271179e-12
3.76185532998528e-12
3.76185482197462e-12
3.76185014469753e-12
3.76182969923017e-12
3.76175472371988e-12
3.76149941422427e-12
3.76068028731787e-12
3.758203608798e-12
3.75117394223186e-12
3.7325546640489e-12
3.68687258700497e-12
3.58395220059553e-12
3.37315210974918e-12
2.9850647884981e-12
2.35082193394423e-12
1.44377857558215e-12
3.56109362562239e-13
1.9169245077646e-14
1.72548654221607e-12
8.72371062531413e-11
3.70471967985799e-10
6.12713426029262e-10
7.85307108404366e-10
8.92073039483673e-10
9.50204804230778e-10
9.78398197136959e-10
9.90714229131678e-10
9.95609754055954e-10
9.97396515806536e-10
9.97999977559147e-10
9.98189705640028e-10
9.98245352250826e-10
9.98260443018663e-10
9.98264033825755e-10
9.98264565325631e-10
9.98264374703138e-10
9.98264072269596e-10
9.98263778849807e-10
9.98263520254134e-10
9.98263299015489e-10
9.98263113035905e-10
9.98262959929457e-10
9.98262839496522e-10
9.98262754334036e-10
9.98262714669379e-10
9.98262717301073e-10
9.9826272914951e-10
9.98262760266011e-10
9.9826282445943e-10
9.98262914925648e-10
9.98262986134884e-10
9.98262792333472e-10
9.98261309358313e-10
9.98255072282705e-10
9.9823253172994e-10
9.98156610006732e-10
9.97915639629156e-10
9.97195121662805e-10
9.95173789533781e-10
9.89885116339302e-10
9.77073920515318e-10
9.4858667218515e-10
8.91004663633704e-10
7.8634897810319e-10
6.17322167748106e-10
3.77895093808501e-10
9.10738069679214e-11
1.86080091333574e-12
6.03869133710464e-12
1.54672274836694e-09
5.1296265856315e-07
8.44055599234028e-07
1.07823540318622e-06
1.22322730387548e-06
1.30264037560282e-06
1.34150687095723e-06
1.35867106446258e-06
1.36557423552778e-06
1.36812430071556e-06
1.36899606126556e-06
1.36927350417649e-06
1.36935592529663e-06
1.36937862999328e-06
1.36938419185303e-06
1.36938512883237e-06
1.36938493704138e-06
1.36938455867796e-06
1.36938418121661e-06
1.36938384608302e-06
1.36938355860314e-06
1.36938331663182e-06
1.36938311733346e-06
1.369382960182e-06
1.36938284874901e-06
1.36938279603737e-06
1.36938279521493e-06
1.3693828082966e-06
1.36938284724595e-06
1.36938292836081e-06
1.36938303952187e-06
1.36938311319008e-06
1.36938277362156e-06
1.3693805245241e-06
1.36937136106435e-06
1.36933858678435e-06
1.36922904333429e-06
1.36888389005683e-06
1.36785954875752e-06
1.36500830902651e-06
1.35760901444965e-06
1.33983383769533e-06
1.3006256489987e-06
1.22192420742741e-06
1.0795470113668e-06
8.49738650091118e-07
5.22113381176137e-07
1.60655043054769e-09
6.42179328405155e-12
1.05467978337083e-11
2.7207769087003e-09
8.99427396856265e-07
1.46806645492322e-06
1.86599121018384e-06
2.11106562818362e-06
2.2451142360466e-06
2.3108085167079e-06
2.33990946105708e-06
2.35166222058181e-06
2.35602502804653e-06
2.35752461352873e-06
2.35800471380987e-06
2.35814830326738e-06
2.35818820528102e-06
2.35819814310615e-06
2.35819992586904e-06
2.35819968321553e-06
2.35819909302609e-06
2.35819849145659e-06
2.35819795375079e-06
2.35819749090244e-06
2.35819710035267e-06
2.35819677800905e-06
2.35819652248811e-06
2.35819633862134e-06
2.35819624261495e-06
2.35819623131381e-06
2.35819626160545e-06
2.35819631402352e-06
2.35819643790612e-06
2.35819660730241e-06
2.35819671384694e-06
2.35819612143658e-06
2.35819236393793e-06
2.35817713470978e-06
2.35812256154913e-06
2.35793967837889e-06
2.35736191066714e-06
2.35564307207692e-06
2.3508488364203e-06
2.33838635241666e-06
2.30840701899431e-06
2.24219333658372e-06
2.10905512164676e-06
1.86747657406924e-06
1.47544202984671e-06
9.11507602900122e-07
2.79996044435829e-09
1.10489893821907e-11
1.47518206526152e-11
3.80945075499989e-09
1.25041599484491e-06
2.02733340578221e-06
2.56662698685711e-06
2.89748348742298e-06
3.07830438060887e-06
3.16703399081267e-06
3.20644437981341e-06
3.22241856291231e-06
3.22837406377753e-06
3.23043108870793e-06
3.23109324843298e-06
3.23129254021052e-06
3.23134838771521e-06
3.23136252575471e-06
3.23136521436454e-06
3.23136501455496e-06
3.23136429804466e-06
3.23136354606285e-06
3.23136286799391e-06
3.23136228157778e-06
3.23136178487754e-06
3.23136137335833e-06
3.23136104480711e-06
3.2313608036336e-06
3.2313606649095e-06
3.23136063858225e-06
3.23136066813404e-06
3.23136073240159e-06
3.2313608772437e-06
3.23136107353122e-06
3.23136117683993e-06
3.23136033456068e-06
3.23135530914903e-06
3.23133508850616e-06
3.23126252700081e-06
3.23101876036755e-06
3.23024658378506e-06
3.22794358488795e-06
3.2215057126659e-06
3.20473939572619e-06
3.16434471252119e-06
3.07500468471773e-06
2.89508613140249e-06
2.56785995291188e-06
2.03471788841285e-06
1.26278406602834e-06
3.89278023662277e-09
1.5293598501016e-11
1.84723687243424e-11
4.774952735029e-09
1.55759588713031e-06
2.51171406965633e-06
3.16995523667598e-06
3.57268272364542e-06
3.79271312422277e-06
3.9008288974693e-06
3.94896978284995e-06
3.96854724724253e-06
3.97587478419794e-06
3.97841698877223e-06
3.97923943722818e-06
3.97948843134668e-06
3.9795587642337e-06
3.97957684712579e-06
3.97958047720111e-06
3.97958041266355e-06
3.97957965137895e-06
3.97957881962191e-06
3.97957806117279e-06
3.97957740129803e-06
3.97957683951329e-06
3.97957637138191e-06
3.97957599437907e-06
3.97957571175113e-06
3.97957553632133e-06
3.97957548303985e-06
3.97957550172266e-06
3.97957557132079e-06
3.97957571522358e-06
3.97957590765178e-06
3.97957597057854e-06
3.97957487333328e-06
3.97956877360945e-06
3.97954447314831e-06
3.97945724647688e-06
3.9791636562488e-06
3.9782315552089e-06
3.97544552363809e-06
3.96764231315513e-06
3.94728734984743e-06
3.89818244275171e-06
3.78945782254947e-06
3.57024601555196e-06
3.17088394625343e-06
2.51833918320332e-06
1.56891353572666e-06
4.85435662414022e-09
1.90093625229274e-11
2.16298125406801e-11
5.59822114489291e-09
1.81736470076949e-06
2.9181169208048e-06
3.67404993459582e-06
4.13569182668893e-06
4.38792465585515e-06
4.51203525666279e-06
4.56742632709656e-06
4.59001992773973e-06
4.59850638159252e-06
4.60146254625481e-06
4.60242329318753e-06
4.60271573491768e-06
4.60279895386919e-06
4.60282065825833e-06
4.60282523406192e-06
4.60282537878957e-06
4.6028246411585e-06
4.60282378987639e-06
4.60282300247234e-06
4.60282231234208e-06
4.60282172101451e-06
4.60282122460667e-06
4.6028208205692e-06
4.60282051085046e-06
4.60282030556658e-06
4.6028202183675e-06
4.60282021938709e-06
4.60282028340499e-06
4.6028204064711e-06
4.60282056982692e-06
4.60282056239536e-06
4.60281920809388e-06
4.60281220021037e-06
4.6027846051244e-06
4.60268561688492e-06
4.60235197505367e-06
4.60129075727576e-06
4.59811298246924e-06
4.58919803858609e-06
4.56591158208136e-06
4.50967454913156e-06
4.38505139659596e-06
4.13357311869219e-06
3.67488811385155e-06
2.92387298749918e-06
1.82720145822146e-06
5.67043357909801e-09
2.21410447983256e-11
2.42097935706553e-11
6.27503534041881e-09
2.02998641642207e-06
3.24888540863318e-06
4.0831736852426e-06
4.59206624351256e-06
4.87020376194396e-06
5.00724777682064e-06
5.06854113086466e-06
5.09360983075764e-06
5.1030559051123e-06
5.10635825403093e-06
5.10743593122414e-06
5.10776557954499e-06
5.10786002380751e-06
5.10788497626894e-06
5.10789046725843e-06
5.10789087070796e-06
5.10789020702597e-06
5.10788938248114e-06
5.10788860592221e-06
5.10788791914495e-06
5.10788732609761e-06
5.10788682377446e-06
5.10788640977018e-06
5.10788608493849e-06
5.10788585629966e-06
5.10788573445443e-06
5.10788571064366e-06
5.10788575371611e-06
5.10788584562546e-06
5.10788596239134e-06
5.10788586014792e-06
5.1078842497004e-06
5.10787648673671e-06
5.1078462762744e-06
5.10773802834684e-06
5.10737281932141e-06
5.10620946385242e-06
5.10272055496649e-06
5.0929194809202e-06
5.06728981590941e-06
5.00534061752232e-06
4.86796892344733e-06
4.59059977937073e-06
4.08428222779446e-06
3.25407697955472e-06
2.03850089341341e-06
6.33996548536063e-09
2.46901489575963e-11
2.62438903658462e-11
6.81243475332295e-09
2.19861224822079e-06
3.51023476589972e-06
4.40588953804386e-06
4.95184283316932e-06
5.25037834873547e-06
5.39766461736834e-06
5.46366515610063e-06
5.49072386969194e-06
5.50094846863362e-06
5.50453444590278e-06
5.5057089653699e-06
5.50606981623415e-06
5.5061738313554e-06
5.50620162611296e-06
5.50620797421616e-06
5.50620866426116e-06
5.50620810387778e-06
5.50620733763698e-06
5.50620659968854e-06
5.50620593994254e-06
5.5062053649775e-06
5.50620487287792e-06
5.50620446153362e-06
5.50620413104253e-06
5.50620388578635e-06
5.50620373376711e-06
5.50620367627169e-06
5.50620368653656e-06
5.5062037428145e-06
5.50620380574807e-06
5.50620359256382e-06
5.50620173449332e-06
5.50619336027538e-06
5.5061611107208e-06
5.50604571885381e-06
5.50565615568889e-06
5.5044137591681e-06
5.50068320499947e-06
5.49019168554947e-06
5.46273167312283e-06
5.39631298508223e-06
5.24895709577062e-06
4.95130454424574e-06
4.40766454086109e-06
3.51536074773098e-06
2.20627784377319e-06
6.87180783252169e-09
2.66978851554491e-11
2.77937353472289e-11
7.22511481408078e-09
2.32830058688469e-06
3.71081410629116e-06
4.65338491409015e-06
5.22775035497062e-06
5.54199768926521e-06
5.69722213391959e-06
5.76689780662281e-06
5.79552313185681e-06
5.80636619864687e-06
5.81017971751662e-06
5.81143276660564e-06
5.81181923232137e-06
5.8119312299484e-06
5.81196144702071e-06
5.81196857806242e-06
5.81196956966315e-06
5.81196911529412e-06
5.81196842482063e-06
5.81196774197073e-06
5.81196712367705e-06
5.8119665791361e-06
5.81196610760365e-06
5.81196570738542e-06
5.81196537816964e-06
5.81196512247675e-06
5.81196494569719e-06
5.81196485069848e-06
5.81196482348945e-06
5.81196483839717e-06
5.81196483874585e-06
5.81196449958039e-06
5.81196243070433e-06
5.81195357766577e-06
5.81191976915316e-06
5.8117989840161e-06
5.8113910549901e-06
5.81008890114958e-06
5.80617506116875e-06
5.79515830057578e-06
5.76630272284514e-06
5.69647114974477e-06
5.54148576510243e-06
5.22833126910986e-06
4.65616952165114e-06
3.71639397284786e-06
2.33568726897319e-06
7.28137631793578e-09
2.8230354872143e-11
2.8936579251802e-11
7.53199281898936e-09
2.42510381973914e-06
3.86042269049061e-06
4.83799966015214e-06
5.43364648537418e-06
5.75972631676887e-06
5.92096883284724e-06
5.99345206428238e-06
6.02328435751217e-06
6.03460830909786e-06
6.03860050565545e-06
6.03991588287822e-06
6.04032292624325e-06
6.04044143542375e-06
6.04047366920282e-06
6.04048148463094e-06
6.04048274804938e-06
6.04048242057997e-06
6.04048181297594e-06
6.04048119248304e-06
6.04048062244478e-06
6.04048011453204e-06
6.04047966914858e-06
6.0404792850884e-06
6.04047896188539e-06
6.04047870084086e-06
6.04047850519874e-06
6.04047837697442e-06
6.04047830946001e-06
6.04047827568352e-06
6.04047820796176e-06
6.04047775546711e-06
6.04047552478746e-06
6.04046629372013e-06
6.04043131717296e-06
6.0403065524851e-06
6.03988510058361e-06
6.0385388559801e-06
6.03448938134443e-06
6.02308287443711e-06
5.9931895667523e-06
5.92081674225541e-06
5.76014668937229e-06
5.43544082099566e-06
4.84202953164816e-06
3.86688129826183e-06
2.43272788624941e-06
7.58752900893477e-09
2.93654928510832e-11
2.97533153500367e-11
7.75325584056457e-09
2.49529281690666e-06
3.96894287002179e-06
4.97201062006155e-06
5.58322846789031e-06
5.91801834533358e-06
6.08372232349866e-06
6.15830353639316e-06
6.18904562097497e-06
6.20073545384567e-06
6.20486495660436e-06
6.20622874493556e-06
6.20665196331672e-06
6.20677566717779e-06
6.20680954604117e-06
6.20681793503931e-06
6.20681944100267e-06
6.20681923720716e-06
6.20681871158347e-06
6.20681815380651e-06
6.2068176330979e-06
6.2068171633692e-06
6.20681674609109e-06
6.20681638055783e-06
6.20681606631058e-06
6.20681580392244e-06
6.20681559516416e-06
6.20681544106707e-06
6.20681533660124e-06
6.20681525889371e-06
6.20681512727793e-06
6.20681458671635e-06
6.20681222013218e-06
6.20680269752512e-06
6.2067668643597e-06
6.20663923220164e-06
6.20620806574133e-06
6.20483009406503e-06
6.20068275278796e-06
6.18899430869758e-06
6.15834883599564e-06
6.08413167546787e-06
5.91933325818121e-06
5.58623738333747e-06
4.97739392808967e-06
3.97655381872149e-06
2.50353484350442e-06
7.80994310591642e-09
3.01825899971597e-11
3.0319809348931e-11
7.90814272058564e-09
2.54477540787247e-06
4.04555113367725e-06
5.06673669153859e-06
5.68908390044368e-06
6.03014057689584e-06
6.19907867686339e-06
6.27519332746965e-06
6.3066063440011e-06
6.31856857339739e-06
6.32280133268941e-06
6.32420191909291e-06
6.324637578576e-06
6.32476533530121e-06
6.32480052566554e-06
6.324809381442e-06
6.32481109326369e-06
6.32481100318029e-06
6.32481055341654e-06
6.3248100541764e-06
6.32480958006744e-06
6.32480914697575e-06
6.32480875730844e-06
6.32480841082599e-06
6.32480810716226e-06
6.32480784649145e-06
6.32480762965245e-06
6.32480745688241e-06
6.32480732370213e-06
6.32480720858527e-06
6.32480702559623e-06
6.32480641370152e-06
6.32480393881268e-06
6.32479419691251e-06
6.32475774993465e-06
6.32462810144336e-06
6.32419012892232e-06
6.32278989861981e-06
6.31857372312704e-06
6.30668649845359e-06
6.27550969883016e-06
6.19998802905238e-06
6.0322675528299e-06
5.69323178346365e-06
5.07346245078286e-06
4.05442843716269e-06
2.55385540427574e-06
7.9671804508884e-09
3.07549428763697e-11
3.07017136705827e-11
8.01354892270353e-09
2.57872901447515e-06
4.09822853648017e-06
5.13198777280571e-06
5.76210755416851e-06
6.10757215535771e-06
6.27880304985498e-06
6.35601414957329e-06
6.38791130761584e-06
6.4000720071436e-06
6.40438076900083e-06
6.40580873381422e-06
6.40625375890578e-06
6.40638460893701e-06
6.40642081970528e-06
6.40643004549925e-06
6.40643192762357e-06
6.40643193658326e-06
6.40643155340242e-06
6.40643110596699e-06
6.40643067356188e-06
6.40643027374829e-06
6.40642990972195e-06
6.40642958164354e-06
6.40642928927174e-06
6.40642903257748e-06
6.40642881183854e-06
6.406428626701e-06
6.40642847270641e-06
6.40642832863704e-06
6.40642810603557e-06
6.40642743915525e-06
6.4064248816646e-06
6.40641497966822e-06
6.40637810363565e-06
6.40624707205705e-06
6.40580444967112e-06
6.40438899469477e-06
6.40012562390532e-06
6.3881017883762e-06
6.35655915184474e-06
6.28013809777798e-06
6.11040141513165e-06
5.76726545848898e-06
5.13995235247181e-06
4.10835077043578e-06
2.58872125950758e-06
8.07549282574155e-09
3.11456135218931e-11
3.09523138478923e-11
8.0833797954762e-09
2.60142966604184e-06
4.13354398591208e-06
5.17582783642558e-06
5.81125383308014e-06
6.15975056951936e-06
6.3325716743068e-06
6.41054998264753e-06
6.44278909295679e-06
6.4550913598276e-06
6.4594548947426e-06
6.46090280511551e-06
6.46135473336352e-06
6.46148789443307e-06
6.4615248815253e-06
6.46153439450556e-06
6.4615364132507e-06
6.4615365046568e-06
6.46153617761284e-06
6.4615357743299e-06
6.4615353779127e-06
6.46153500728962e-06
6.46153466628576e-06
6.46153435538861e-06
6.46153407448279e-06
6.46153382344141e-06
6.46153360221242e-06
6.46153341002696e-06
6.46153324224616e-06
6.46153307756511e-06
6.46153282615234e-06
6.46153211903981e-06
6.46152950138073e-06
6.46151948634538e-06
6.4614823182221e-06
6.4613503614691e-06
6.46090464095421e-06
6.45947903093249e-06
6.45518410652872e-06
6.44306872544409e-06
6.41128047186973e-06
6.33425474707397e-06
6.16316126181891e-06
5.81726437892938e-06
5.18486895535775e-06
4.14479434603184e-06
2.61229861962835e-06
8.14828464276246e-09
3.14058045702541e-11
3.11125947833269e-11
8.1284752630046e-09
2.61623405475703e-06
4.1566501833938e-06
5.20458368612383e-06
5.8435527405429e-06
6.19409035928013e-06
6.36799101192367e-06
6.44649491477761e-06
6.47897054236919e-06
6.49137171186119e-06
6.49577391343633e-06
6.49723605850309e-06
6.49769297129721e-06
6.49782782367864e-06
6.49786538922766e-06
6.49787512053719e-06
6.49787724623187e-06
6.49787740426061e-06
6.49787712319093e-06
6.49787675659508e-06
6.49787639051675e-06
6.49787604496355e-06
6.49787572424867e-06
6.49787542910988e-06
6.49787515953768e-06
6.49787491536856e-06
6.49787469635723e-06
6.49787450145063e-06
6.49787432579193e-06
6.49787414786881e-06
6.49787387702364e-06
6.49787314220937e-06
6.49787048288553e-06
6.49786039096026e-06
6.49782302952845e-06
6.4976904694507e-06
6.49724273531029e-06
6.49581051703369e-06
6.49149501113367e-06
6.47931977892999e-06
6.44737063394193e-06
6.36994822961072e-06
6.19796366217071e-06
5.85025198580474e-06
5.21451320024004e-06
4.1688588617661e-06
2.62787588380022e-06
8.1960712870497e-09
3.15751076124566e-11
3.12126490383111e-11
8.1568986767431e-09
2.62566212350251e-06
4.17141940407987e-06
5.22301579912664e-06
5.86430033111205e-06
6.21618294945947e-06
6.39080138996525e-06
6.46965803835154e-06
6.50229396080246e-06
6.51476284463116e-06
6.51919180019179e-06
6.52066390329783e-06
6.52112434436558e-06
6.52126041029066e-06
6.52129839848178e-06
6.52130829271627e-06
6.52131050104612e-06
6.52131071232139e-06
6.521310468116e-06
6.52131013162984e-06
6.52130979089549e-06
6.52130946674296e-06
6.52130916384904e-06
6.52130888313764e-06
6.52130862468001e-06
6.52130838830336e-06
6.52130817365208e-06
6.52130797948144e-06
6.52130780074391e-06
6.52130761571382e-06
6.52130733321076e-06
6.5213065808803e-06
6.52130389451606e-06
6.5212937526211e-06
6.5212562672641e-06
6.52112332395514e-06
6.52067431292429e-06
6.51923789719732e-06
6.51490928555422e-06
6.50269585035409e-06
6.47064380069605e-06
6.39296727300948e-06
6.22041111638762e-06
5.87153404457451e-06
5.23364588643139e-06
4.18439950612444e-06
2.63794162874694e-06
8.22675189818837e-09
3.16828671085911e-11
3.12736842880965e-11
8.17440505472221e-09
2.63153159073245e-06
4.18065122498859e-06
5.23457264236966e-06
5.87733934692897e-06
6.23009047808167e-06
6.40517667906666e-06
6.48426541122716e-06
6.51700785313741e-06
6.52952220129953e-06
6.53396931250778e-06
6.53544824881374e-06
6.53591114010171e-06
6.5360480606811e-06
6.53608635224779e-06
6.53609636624636e-06
6.53609863863283e-06
6.53609889269778e-06
6.53609867703817e-06
6.53609836520851e-06
6.53609804569063e-06
6.53609773989738e-06
6.5360974527676e-06
6.53609718534684e-06
6.53609693777077e-06
6.53609670986829e-06
6.53609650122011e-06
6.53609631045699e-06
6.53609613238112e-06
6.53609594509035e-06
6.53609565706396e-06
6.53609489514364e-06
6.53609219284045e-06
6.53608202041407e-06
6.53604445861062e-06
6.53591127863681e-06
6.53546147771911e-06
6.53402245837478e-06
6.52968569410306e-06
6.51744843293494e-06
6.48533206616509e-06
6.40749642438506e-06
6.23458184245517e-06
5.88497299166776e-06
5.24573327702083e-06
4.19422427621901e-06
2.6443096052469e-06
8.24603767139875e-09
3.17500340933562e-11
3.1310108055481e-11
8.18495251407733e-09
2.63510707414117e-06
4.18629951425295e-06
5.24166695242895e-06
5.88536366921261e-06
6.23866473519652e-06
6.41404992246679e-06
6.49328845873487e-06
6.52610035674311e-06
6.53864466171261e-06
6.5431038657022e-06
6.54458740498033e-06
6.54505196724279e-06
6.54518947951903e-06
6.54522798571773e-06
6.54523808664054e-06
6.54524041078744e-06
6.54524070085734e-06
6.54524050450799e-06
6.54524021300604e-06
6.5452399115252e-06
6.54523962176633e-06
6.54523934883662e-06
6.54523909385678e-06
6.54523885700802e-06
6.545238638128e-06
6.54523843676365e-06
6.54523825146179e-06
6.54523807691617e-06
6.54523789108909e-06
6.54523760224294e-06
6.54523683673199e-06
6.54523412669353e-06
6.5452239374559e-06
6.54518633100349e-06
6.54505300967701e-06
6.5446027327414e-06
6.54316213636279e-06
6.53882041555366e-06
6.52656862589271e-06
6.49441294527372e-06
6.41647984992243e-06
6.24334535956376e-06
5.89328679882188e-06
5.25321506087724e-06
4.20031031895094e-06
2.64825749479896e-06
8.25791888463498e-09
3.17910740352462e-11
3.13313877607553e-11
8.1911732797223e-09
2.63723974598186e-06
4.18968434825765e-06
5.24593355578853e-06
5.89020268641544e-06
6.24384544627038e-06
6.41941821802839e-06
6.49875168809276e-06
6.53160805847582e-06
6.54417174926569e-06
6.54863886492317e-06
6.55012545053413e-06
6.5505911330373e-06
6.55072904874545e-06
6.55076770518396e-06
6.55077786862143e-06
6.5507802321781e-06
6.55078054912205e-06
6.55078037233202e-06
6.55078009812318e-06
6.55077981233856e-06
6.5507795369102e-06
6.55077927704818e-06
6.55077903390467e-06
6.55077880769234e-06
6.55077859826507e-06
6.55077840515454e-06
6.55077822685119e-06
6.55077805797195e-06
6.55077787637948e-06
6.55077759020171e-06
6.55077682550782e-06
6.55077411364244e-06
6.55076391708797e-06
6.55072628690425e-06
6.55059288496478e-06
6.55014232980666e-06
6.54870080216327e-06
6.54435613767188e-06
6.53209568577626e-06
6.49991649559581e-06
6.42192498300111e-06
6.24865839712325e-06
5.89832917295393e-06
5.25775564334526e-06
4.2040071219195e-06
2.65065777845062e-06
8.26509822514417e-09
3.18156757005825e-11
3.13435563796749e-11
8.19476423534244e-09
2.63848512277906e-06
4.1916709631148e-06
5.24844745476131e-06
5.89306228363996e-06
6.24691346199918e-06
6.4226018135599e-06
6.50199438389667e-06
6.53487873455658e-06
6.54745475472831e-06
6.55192695853092e-06
6.55341552657314e-06
6.55388194819102e-06
6.55402013536558e-06
6.55405889637359e-06
6.55406910514083e-06
6.55407149778873e-06
6.5540718377902e-06
6.55407167862685e-06
6.55407141956697e-06
6.55407114784361e-06
6.55407088557892e-06
6.55407063804234e-06
6.55407040637194e-06
6.55407019080139e-06
6.5540699912136e-06
6.55406980713666e-06
6.55406963702564e-06
6.5540694754382e-06
6.55406930017471e-06
6.55406901927561e-06
6.55406825865582e-06
6.55406554924139e-06
6.5540553519698e-06
6.55401771181092e-06
6.55388426761267e-06
6.55343355699415e-06
6.55199149687749e-06
6.54764513101543e-06
6.53537964040505e-06
6.50318671426484e-06
6.42516095470213e-06
6.25181671173015e-06
5.90132796692164e-06
5.26045795042688e-06
4.20620947952418e-06
2.65208930637424e-06
8.2693547082681e-09
3.18301498430568e-11
3.13503468245941e-11
8.19678711552746e-09
2.63919513892776e-06
4.19281008674785e-06
5.24989531924526e-06
5.89471478807432e-06
6.24869067871665e-06
6.42444894099259e-06
6.50387765105261e-06
6.53677930268037e-06
6.5493630321224e-06
6.55383845393692e-06
6.55532829113527e-06
6.5557951929945e-06
6.5559335606982e-06
6.55597239429415e-06
6.55598263645271e-06
6.55598505153818e-06
6.55598541092049e-06
6.55598526731079e-06
6.55598502177178e-06
6.55598476291021e-06
6.55598451297197e-06
6.55598427725237e-06
6.55598405682498e-06
6.55598385193937e-06
6.55598366252047e-06
6.55598348810368e-06
6.55598332712313e-06
6.5559831740938e-06
6.55598300676942e-06
6.55598273314407e-06
6.55598197906639e-06
6.55597927528209e-06
6.55596908201734e-06
6.55593144114948e-06
6.55579797918672e-06
6.55534718932153e-06
6.55390484137787e-06
6.54955753252575e-06
6.53728921068729e-06
6.50508849825191e-06
6.42704320411199e-06
6.25365445288556e-06
5.90307391813157e-06
5.26203268609706e-06
4.20749445729154e-06
2.65292569485366e-06
8.27182812078027e-09
3.18385002692112e-11
3.13539978055927e-11
8.19788548963507e-09
2.63958578432394e-06
4.19344147465596e-06
5.25070244126092e-06
5.89563995905015e-06
6.2496887212819e-06
6.42548834991787e-06
6.50493871109119e-06
6.53785085964092e-06
6.55043932307939e-06
6.55491674473935e-06
6.55640738068116e-06
6.55687458959056e-06
6.55701307584346e-06
6.55705195963043e-06
6.55706222658366e-06
6.55706465934291e-06
6.55706503494117e-06
6.55706490495127e-06
6.55706467155862e-06
6.55706442457649e-06
6.55706418629528e-06
6.55706396200675e-06
6.55706375266572e-06
6.55706355853853e-06
6.55706337960461e-06
6.55706321541903e-06
6.55706306440161e-06
6.55706292103717e-06
6.55706276304583e-06
6.55706249840296e-06
6.55706175294914e-06
6.5570590574262e-06
6.55704887191237e-06
6.5570112371464e-06
6.55687777406833e-06
6.5564269541981e-06
6.55498447213873e-06
6.55063668929231e-06
6.53836688816072e-06
6.50616201039493e-06
6.42810609913148e-06
6.2546928808986e-06
5.90406145129949e-06
5.26292462318514e-06
4.20822362474158e-06
2.6534013347873e-06
8.27322887179191e-09
3.18432007862721e-11
3.13557965860909e-11
8.19843313777232e-09
2.63978406234785e-06
4.19376614798835e-06
5.25112165084279e-06
5.89612402149123e-06
6.25021359884452e-06
6.42603682130894e-06
6.50549974662152e-06
6.5384180972666e-06
6.55100939744347e-06
6.55548803362424e-06
6.55697916124873e-06
6.55744656224335e-06
6.55758512474238e-06
6.55762404263086e-06
6.55763432770721e-06
6.5576367742158e-06
6.55763716308464e-06
6.55763704472453e-06
6.55763682204156e-06
6.5576365858892e-06
6.55763635851726e-06
6.5576361451854e-06
6.55763594668912e-06
6.55763576332322e-06
6.5576355951283e-06
6.55763544168074e-06
6.55763530139134e-06
6.5576351687215e-06
6.55763502136947e-06
6.5576347673071e-06
6.55763403241826e-06
6.5576313475826e-06
6.55762117317219e-06
6.55758355023772e-06
6.55745009897347e-06
6.55699928476197e-06
6.55555677436393e-06
6.55120882865234e-06
6.5389384215284e-06
6.50673167207953e-06
6.42867071143013e-06
6.25524540841435e-06
5.9045881622213e-06
5.26340187772462e-06
4.20861537539203e-06
2.65365812030701e-06
8.27398504814475e-09
3.18457331235527e-11
3.13564235549416e-11
8.19862937947663e-09
2.63985854361212e-06
4.19389350278508e-06
5.25129147215715e-06
5.89632470773184e-06
6.25043468068244e-06
6.42627019604789e-06
6.50573991143269e-06
6.53866175240701e-06
6.5512546840088e-06
6.55573403587658e-06
6.55722546204808e-06
6.55769298495307e-06
6.55783159991341e-06
6.55787054465795e-06
6.55788084640838e-06
6.55788330666944e-06
6.55788370903626e-06
6.55788360275291e-06
6.55788339129429e-06
6.55788316647068e-06
6.55788295041435e-06
6.55788274832415e-06
6.5578825608783e-06
6.55788238842137e-06
6.55788223104057e-06
6.55788208832159e-06
6.5578819586584e-06
6.55788183648073e-06
6.55788169944792e-06
6.55788145552127e-06
6.55788073064667e-06
6.55787805595161e-06
6.55786789249729e-06
6.55783028297153e-06
6.55769685111145e-06
6.5572460691233e-06
6.55580361300708e-06
6.55145574329949e-06
6.5391853777999e-06
6.50697839828216e-06
6.42891625236242e-06
6.25548724701785e-06
5.90482083418314e-06
5.2636152577243e-06
4.20879309989743e-06
2.65377662505976e-06
8.27433993306601e-09
3.18469364755742e-11
3.13561326640445e-11
8.19855035787008e-09
2.63983709369984e-06
4.1938695553679e-06
5.25127143706902e-06
5.8963108054097e-06
6.25042656190132e-06
6.42626641335001e-06
6.50573891062062e-06
6.53866233508887e-06
6.55125607803416e-06
6.55573581861249e-06
6.55722742227148e-06
6.55769502712813e-06
6.55783368444664e-06
6.55787265610341e-06
6.55788297783233e-06
6.55788545560568e-06
6.55788587471929e-06
6.55788578333115e-06
6.55788558551131e-06
6.55788537400265e-06
6.55788517074893e-06
6.55788498086571e-06
6.55788480505159e-06
6.55788464370734e-06
6.55788449692976e-06
6.55788436429134e-06
6.55788424414673e-06
6.55788413086587e-06
6.55788400203316e-06
6.55788376556084e-06
6.55788304745624e-06
6.5578803792025e-06
6.55787022301003e-06
6.55783262478965e-06
6.55769921680404e-06
6.55724849223214e-06
6.55580617422393e-06
6.55145861880798e-06
6.53918891424791e-06
6.50698320033259e-06
6.42892322897005e-06
6.25549751241078e-06
5.90483533617948e-06
5.26363405075035e-06
4.20881427001644e-06
2.65379508890276e-06
8.2744114199866e-09
3.18472256451305e-11
3.13548482639768e-11
8.19817790687044e-09
2.63971530854257e-06
4.19368971279468e-06
5.25105795489435e-06
5.89608005656043e-06
6.25018820556226e-06
6.4260253520529e-06
6.50549721172027e-06
6.53842063665212e-06
6.55101454537907e-06
6.5554944209403e-06
6.55698610853631e-06
6.5574537630522e-06
6.55759245250242e-06
6.55763144837357e-06
6.55764179013136e-06
6.55764428609725e-06
6.55764472228989e-06
6.55764464615894e-06
6.55764446231457e-06
6.55764426443505e-06
6.55764407417001e-06
6.55764389652438e-06
6.55764373234657e-06
6.55764358207005e-06
6.55764344576825e-06
6.5576433229866e-06
6.55764321202789e-06
6.55764310718174e-06
6.55764298593503e-06
6.55764275614391e-06
6.55764204392079e-06
6.55763938132967e-06
6.5576292324727e-06
6.55759164885625e-06
6.55745827832552e-06
6.55700765438699e-06
6.55556559731109e-06
6.55121867976799e-06
6.53895043377266e-06
6.50674782501942e-06
6.42869398374599e-06
6.2552794480111e-06
5.90463605297952e-06
5.26346375042403e-06
4.20868494961883e-06
2.6537185785391e-06
8.2742171338768e-09
3.18466587685301e-11
3.13521914159071e-11
8.19740138615461e-09
2.63945592956926e-06
4.19329768617985e-06
5.25058324409606e-06
5.89555838366422e-06
6.2496424851542e-06
6.42546861114451e-06
6.50493597846638e-06
6.53785777914321e-06
6.5504511933717e-06
6.554930954963e-06
6.55642263663171e-06
6.55689030870186e-06
6.55702901810213e-06
6.55706803271851e-06
6.55707839170493e-06
6.5570809038015e-06
6.55708135511902e-06
6.55708129265279e-06
6.55708112141328e-06
6.55708093610053e-06
6.5570807579731e-06
6.55708059189946e-06
6.55708043890656e-06
6.5570802994486e-06
6.55708017356965e-06
6.55708006078933e-06
6.5570799593568e-06
6.55707986347083e-06
6.55707975051585e-06
6.55707952831189e-06
6.55707882319145e-06
6.55707616818178e-06
6.55706603048674e-06
6.55702847091024e-06
6.55689516360821e-06
6.55644471162051e-06
6.55500310724641e-06
6.55065731933699e-06
6.53839172246687e-06
6.50619492103594e-06
6.42815292510753e-06
6.25476077417623e-06
5.90415642719261e-06
5.26304684226355e-06
4.20836067005263e-06
2.65352001500403e-06
8.27368451883112e-09
3.18450305061318e-11
3.13473100040811e-11
8.19597781132076e-09
2.63897930671008e-06
4.19257192053774e-06