/*--------------------------------*- C++ -*----------------------------------*\
  =========                 |
  \\      /  F ield         | OpenFOAM: The Open Source CFD Toolbox
   \\    /   O peration     | Website:  https://openfoam.org
    \\  /    A nd           | Version:  10
     \\/     M anipulation  |
\*---------------------------------------------------------------------------*/
FoamFile
{
    format      ascii;
    class       volScalarField;
    location    "3.6";
    object      omega;
}
// * * * * * * * * * * * * * * * * * * * * * * * * * * * * * * * * * * * * * //

dimensions      [0 0 -1 0 0 0 0];

internalField   nonuniform List<scalar> 
2500
(
128253.351918939
128269.215462374
128263.000694755
128260.006528568
128258.75154939
128258.248432833
128258.054747108
128257.983340162
128257.958004007
128257.949665444
128257.946319018
128257.94496861
128257.944365398
128257.943768984
128257.943250304
128257.942678205
128257.942394363
128257.94203535
128257.941625572
128257.941344302
128257.941092874
128257.940863374
128257.940667708
128257.940560812
128257.940441649
128257.940319506
128257.940276705
128257.940241739
128257.940227908
128257.940260624
128257.940316438
128257.940422946
128257.940577654
128257.940777675
128257.940989042
128257.941230759
128257.941525551
128257.941819384
128257.942548841
128257.943850431
128257.947196816
128257.956696615
128257.98383374
128258.058621157
128258.257269094
128258.760270938
128260.005804424
128262.998588164
128269.29655695
128253.306526059
31881.0110072121
14165.7021559767
14162.8215143671
14161.3528585772
14160.6784815281
14160.3831892275
14160.2601960062
14160.2120776358
14160.194499854
14160.1885132087
14160.1865720879
14160.185973098
14160.1857963253
14160.1857300401
14160.1856949063
14160.18566653
14160.185650678
14160.1856327327
14160.1856120882
14160.1855956322
14160.1855784971
14160.1855594413
14160.1855420654
14160.1855336773
14160.1855271289
14160.1855182422
14160.1855153994
14160.1855127826
14160.185507178
14160.1855101314
14160.1855122003
14160.1855111379
14160.185528279
14160.1855515025
14160.1855635667
14160.1855759285
14160.1856038434
14160.1856736785
14160.1859024734
14160.1866219619
14160.1888685827
14160.1955688337
14160.214435015
14160.264396356
14160.3888861422
14160.6828410893
14161.3514404527
14162.8213906818
14165.7519822255
31881.0513405127
31737.7027546318
3525.25530064276
50.7514365697912
50.7452339595853
50.7423896857615
50.7411439630141
50.7406235146957
50.7404187530645
50.7403434516432
50.7403176091916
50.7403092526749
50.7403067133933
50.7403060066819
50.7403057999968
50.7403057291123
50.7403056923427
50.740305675416
50.7403056555174
50.7403056284447
50.7403056044044
50.7403055732489
50.7403055309273
50.7403054879662
50.740305466396
50.7403054550965
50.7403054354166
50.7403054318683
50.7403054272399
50.7403054070926
50.7403054119904
50.7403054118234
50.7403053972646
50.7403054481581
50.7403055172502
50.7403055224268
50.7403055263786
50.7403056131295
50.7403058819167
50.7403067919254
50.7403097890594
50.7403192597008
50.7403475858571
50.7404272906517
50.7406380529602
50.741162650819
50.7424025556009
50.7452297204531
50.7514625166589
3525.2760160894
31738.0152217923
31636.3305289296
3514.14386137421
50.5942345009191
50.5896090385415
50.5875764479132
50.586720556355
50.5863732435602
50.5862391138945
50.5861903130008
50.5861736543472
50.5861682835311
50.5861666649029
50.586166231805
50.5861661181306
50.5861660919928
50.5861660865241
50.5861660881204
50.5861660878305
50.5861660828815
50.5861660771159
50.5861660656797
50.5861660443732
50.5861660187641
50.5861660040191
50.5861659994739
50.5861659897781
50.5861659891955
50.5861659908834
50.586165981557
50.5861659816409
50.5861659808381
50.5861659664492
50.5861659941153
50.5861660294925
50.5861660297374
50.5861660302801
50.5861660611587
50.586166205613
50.5861667455711
50.5861685671844
50.5861744201366
50.5861921983485
50.5862430097894
50.5863799210424
50.5867292092637
50.587582821457
50.5896127302503
50.5942875258708
3514.16605769889
31636.820054786
31575.238695264
3507.67290575353
50.5046988991285
50.5019507190304
50.5007883378334
50.5003159897641
50.500129175933
50.5000580663235
50.5000323449807
50.5000235665063
50.5000207265533
50.5000198719635
50.5000196502895
50.5000196004634
50.5000195973626
50.5000196005815
50.5000196058922
50.5000196096642
50.5000196099996
50.5000196099552
50.5000196077811
50.5000195992918
50.5000195862864
50.5000195773692
50.5000195769794
50.5000195767439
50.5000195774541
50.5000195782851
50.5000195748389
50.5000195743351
50.5000195727286
50.5000195611801
50.500019573795
50.5000195889332
50.5000195868073
50.5000195861572
50.5000195953182
50.5000196568543
50.500019919609
50.5000208333768
50.5000238026655
50.5000329093603
50.5000592014234
50.5001310284701
50.5003180675881
50.5007890894134
50.5019533053274
50.5047442899659
3507.69037019691
31575.7118031687
31542.9288788479
3504.37426418706
50.4599688632821
50.4585765109728
50.4580060962112
50.4577812682802
50.4576942987076
50.4576615684708
50.4576497608672
50.45764571927
50.4576444031036
50.4576440060044
50.4576439072625
50.4576438891818
50.45764389067
50.4576438944472
50.4576438988981
50.4576439024345
50.4576439039678
50.4576439046159
50.457643904817
50.4576439022045
50.4576438965321
50.4576438926495
50.4576438933962
50.4576438945754
50.4576438952061
50.4576438957627
50.4576438947927
50.4576438943656
50.4576438927974
50.4576438859131
50.4576438908309
50.457643896284
50.4576438937519
50.4576438933087
50.4576438949732
50.4576439171609
50.4576440299579
50.4576444343739
50.457645759697
50.4576498437887
50.4576616981292
50.4576943826668
50.4577808954564
50.4580044753516
50.4585760119055
50.4599949503388
3504.3852558253
31543.2755472038
31527.6032740881
3502.86772704453
50.4399034441397
50.4392785576338
50.4390291662559
50.4389333617299
50.4388970059803
50.4388834496589
50.4388785626885
50.4388768820788
50.4388763305394
50.4388761633913
50.4388761234829
50.4388761179817
50.4388761197281
50.4388761221886
50.4388761248275
50.4388761269847
50.4388761282724
50.4388761287538
50.4388761291309
50.438876128442
50.4388761262123
50.4388761249307
50.4388761255493
50.4388761262558
50.4388761265892
50.4388761268623
50.4388761265115
50.438876126303
50.4388761254298
50.4388761218911
50.438876123475
50.4388761250593
50.4388761236778
50.4388761233744
50.438876123197
50.4388761300995
50.4388761735492
50.4388763370053
50.4388768756748
50.4388785367698
50.4388833648499
50.4388967475664
50.4389326196629
50.4390273826472
50.4392767079313
50.4399147730302
3502.87356105629
31527.8131026729
31520.9745006327
3502.24039305134
50.43168032345
50.4314256625533
50.4313261860763
50.4312887809906
50.4312748210497
50.4312696562554
50.4312677937983
50.4312671497548
50.4312669367931
50.4312668719976
50.4312668572345
50.4312668558205
50.4312668566889
50.4312668579358
50.4312668592006
50.4312668602297
50.431266860894
50.4312668611092
50.4312668613483
50.431266861172
50.4312668603469
50.4312668600279
50.4312668603327
50.4312668605641
50.4312668606588
50.4312668607542
50.4312668605411
50.431266860318
50.4312668599128
50.4312668583442
50.4312668586921
50.4312668589765
50.4312668584302
50.4312668582299
50.4312668576539
50.4312668594359
50.4312668749883
50.4312669364591
50.43126713991
50.4312677657707
50.4312695816087
50.4312746250557
50.431288270278
50.4313249823005
50.4314239668361
50.4316841207285
3502.24309646496
31521.0844377681
31518.3259818667
3501.99898872375
50.428561262314
50.4284653563464
50.4284285565112
50.4284149619425
50.4284099612653
50.4284081238671
50.4284074608058
50.4284072302
50.4284071534215
50.428407130006
50.4284071248138
50.4284071244567
50.4284071248547
50.428407125372
50.4284071258673
50.4284071262567
50.4284071265032
50.428407126549
50.428407126614
50.4284071265148
50.4284071262144
50.4284071261393
50.4284071262005
50.4284071262079
50.4284071261746
50.4284071261444
50.4284071259898
50.428407125813
50.428407125587
50.4284071249124
50.4284071248981
50.4284071248337
50.4284071245543
50.4284071244236
50.4284071241
50.4284071244347
50.4284071295926
50.428407151342
50.4284072236844
50.4284074452226
50.4284080853082
50.4284098619773
50.4284146996337
50.4284279112186
50.4284642776527
50.4285621578554
3502.00010867553
31518.3773361834
31517.3384268706
3501.9122394443
50.427455346848
50.4274215312282
50.4274087518766
50.4274040992328
50.4274024091227
50.4274017919946
50.4274015691201
50.4274014911711
50.4274014650481
50.4274014570584
50.4274014552865
50.4274014551617
50.4274014552878
50.4274014554418
50.4274014555747
50.4274014556636
50.4274014556999
50.4274014556672
50.427401455619
50.4274014555113
50.4274014553693
50.427401455297
50.427401455246
50.4274014551705
50.4274014550832
50.4274014549957
50.4274014548659
50.4274014547255
50.4274014545712
50.4274014542597
50.4274014541402
50.4274014540266
50.4274014538744
50.4274014537517
50.4274014535534
50.427401453544
50.4274014551568
50.4274014624485
50.4274014868665
50.427401561257
50.4274017749834
50.4274023666134
50.4274039837615
50.4274084529766
50.4274209711708
50.4274554015941
3501.91266119595
31517.3602534087
31516.9920721722
3501.88289970785
50.4270861528304
50.4270748775449
50.42707067292
50.427069160282
50.4270686166842
50.427068419324
50.4270683479967
50.4270683229072
50.4270683144306
50.4270683118071
50.4270683111903
50.4270683111043
50.4270683110969
50.4270683110918
50.4270683110733
50.4270683110366
50.4270683109804
50.4270683108999
50.4270683108104
50.4270683107027
50.4270683105847
50.427068310486
50.4270683103899
50.4270683102857
50.4270683101788
50.4270683100715
50.427068309952
50.42706830983
50.4270683097055
50.4270683095387
50.427068309425
50.4270683093134
50.4270683091901
50.4270683090729
50.4270683089392
50.4270683088687
50.4270683093193
50.4270683116248
50.4270683194771
50.4270683433248
50.42706841144
50.4270685992338
50.4270691134258
50.4270705474759
50.4270746233163
50.4270860607942
3501.88304575385
31517.0006383272
31516.8772380387
3501.873519986
50.4269697145143
50.4269661312572
50.4269648110078
50.4269643406419
50.426964173129
50.4269641126172
50.4269640907235
50.4269640829637
50.4269640802996
50.4269640794383
50.4269640791921
50.4269640791068
50.4269640790423
50.4269640789742
50.426964078898
50.4269640788132
50.4269640787203
50.4269640786181
50.4269640785112
50.4269640783983
50.4269640782824
50.4269640781713
50.4269640780598
50.4269640779466
50.4269640778336
50.4269640777206
50.4269640776059
50.4269640774925
50.4269640773798
50.4269640772579
50.4269640771511
50.4269640770471
50.4269640769414
50.4269640768387
50.4269640767354
50.4269640766555
50.4269640767388
50.4269640774054
50.4269640797996
50.426964087115
50.426964107937
50.4269641651022
50.4269643216496
50.4269647611885
50.4269660258097
50.4269696420597
3501.8735668067
31516.88037708
31516.8412721811
3501.87069636299
50.4269352317771
50.4269341396903
50.4269337417525
50.4269336010947
50.4269335513653
50.4269335334685
50.4269335269704
50.4269335246302
50.4269335237903
50.4269335234801
50.4269335233477
50.426933523259
50.4269335231728
50.4269335230818
50.4269335229852
50.4269335228836
50.4269335227775
50.4269335226671
50.4269335225539
50.4269335224383
50.4269335223216
50.4269335222059
50.4269335220901
50.4269335219747
50.4269335218603
50.426933521747
50.4269335216349
50.4269335215249
50.426933521417
50.4269335213091
50.426933521207
50.4269335211083
50.4269335210114
50.4269335209178
50.4269335208273
50.4269335207471
50.4269335207184
50.4269335208684
50.4269335215386
50.4269335236716
50.4269335297817
50.4269335465297
50.4269335923849
50.4269337217662
50.4269340978847
50.4269351928668
3501.87071024882
31516.8423550935
31516.8308307452
3501.86992129519
50.4269260278967
50.4269257071176
50.4269255914396
50.4269255508073
50.4269255365136
50.4269255313704
50.4269255294781
50.4269255287644
50.4269255284733
50.4269255283285
50.4269255282296
50.4269255281391
50.4269255280454
50.426925527947
50.426925527844
50.426925527737
50.4269255276269
50.426925527514
50.426925527399
50.4269255272827
50.4269255271658
50.4269255270492
50.4269255269328
50.4269255268174
50.4269255267033
50.4269255265908
50.4269255264803
50.4269255263723
50.4269255262668
50.4269255261637
50.4269255260645
50.4269255259688
50.4269255258762
50.4269255257873
50.4269255257022
50.4269255256229
50.4269255255616
50.4269255255551
50.4269255257017
50.4269255262708
50.426925527975
50.4269255326933
50.4269255456476
50.4269255823635
50.4269256900854
50.4269260091637
3501.86992501904
31516.8311842381
31516.8282821388
3501.8697586206
50.426924280981
50.4269241898115
50.4269241572511
50.4269241458646
50.4269241418608
50.4269241404032
50.4269241398406
50.4269241395975
50.4269241394654
50.4269241393685
50.4269241392793
50.4269241391883
50.4269241390925
50.426924138992
50.4269241388874
50.4269241387792
50.4269241386682
50.426924138555
50.4269241384401
50.4269241383241
50.4269241382077
50.4269241380915
50.4269241379757
50.4269241378611
50.4269241377478
50.4269241376364
50.4269241375273
50.4269241374207
50.4269241373169
50.426924137216
50.4269241371187
50.4269241370249
50.4269241369347
50.4269241368482
50.4269241367656
50.4269241366877
50.4269241366178
50.4269241365659
50.4269241365595
50.4269241366733
50.426924137103
50.426924138363
50.4269241418829
50.4269241519436
50.4269241817512
50.4269242715746
3501.86975941626
31516.8283912006
31516.8280766949
3501.8697719174
50.4269246472921
50.4269246221363
50.4269246132275
50.4269246101136
50.4269246090041
50.4269246085783
50.4269246083873
50.4269246082758
50.4269246081883
50.4269246081049
50.4269246080187
50.4269246079276
50.4269246078315
50.4269246077308
50.4269246076261
50.4269246075181
50.4269246074074
50.4269246072947
50.4269246071805
50.4269246070653
50.4269246069497
50.4269246068344
50.4269246067196
50.426924606606
50.4269246064938
50.4269246063837
50.4269246062758
50.4269246061704
50.4269246060681
50.4269246059688
50.4269246058729
50.4269246057806
50.4269246056921
50.4269246056073
50.4269246055265
50.4269246054498
50.4269246053782
50.4269246053143
50.4269246052653
50.4269246052515
50.4269246053248
50.4269246056223
50.426924606524
50.4269246091744
50.4269246171528
50.426924641648
3501.86977192437
31516.8281078502
31516.8285417719
3501.86983401301
50.4269255911367
50.4269255843753
50.4269255819918
50.426925581148
50.4269255808288
50.4269255806832
50.4269255805928
50.4269255805168
50.4269255804413
50.4269255803616
50.4269255802764
50.4269255801856
50.4269255800898
50.4269255799894
50.4269255798852
50.4269255797778
50.4269255796678
50.4269255795558
50.4269255794424
50.4269255793282
50.4269255792137
50.4269255790994
50.4269255789858
50.4269255788733
50.4269255787624
50.4269255786535
50.4269255785468
50.4269255784428
50.4269255783418
50.4269255782439
50.4269255781494
50.4269255780586
50.4269255779714
50.4269255778881
50.4269255778088
50.4269255777334
50.4269255776623
50.426925577596
50.4269255775364
50.4269255774887
50.4269255774661
50.4269255775044
50.426925577702
50.4269255783565
50.4269255804128
50.4269255868906
3501.86983382281
31516.8285491854
31516.829192438
3501.86990921256
50.4269266877007
50.4269266859202
50.4269266852861
50.4269266850475
50.4269266849375
50.4269266848655
50.4269266848011
50.4269266847343
50.4269266846619
50.4269266845832
50.4269266844983
50.4269266844079
50.4269266843125
50.4269266842126
50.4269266841091
50.4269266840024
50.4269266838933
50.4269266837822
50.4269266836698
50.4269266835566
50.4269266834432
50.42692668333
50.4269266832176
50.4269266831063
50.4269266829967
50.426926682889
50.4269266827837
50.4269266826811
50.4269266825814
50.4269266824848
50.4269266823917
50.4269266823023
50.4269266822165
50.4269266821347
50.4269266820567
50.4269266819828
50.4269266819128
50.426926681847
50.4269266817857
50.4269266817301
50.4269266816836
50.4269266816551
50.4269266816696
50.4269266818031
50.4269266823005
50.4269266839558
3501.86990897808
31516.8291929119
31516.8298929351
3501.86998782935
50.4269278234516
50.4269278229837
50.4269278228058
50.4269278227233
50.4269278226666
50.4269278226127
50.4269278225546
50.4269278224897
50.4269278224179
50.4269278223395
50.426927822255
50.4269278221649
50.42692782207
50.4269278219707
50.4269278218679
50.426927821762
50.4269278216537
50.4269278215436
50.4269278214322
50.4269278213201
50.4269278212078
50.4269278210959
50.4269278209847
50.4269278208747
50.4269278207663
50.42692782066
50.426927820556
50.4269278204548
50.4269278203564
50.4269278202613
50.4269278201697
50.4269278200816
50.4269278199973
50.4269278199169
50.4269278198404
50.4269278197679
50.4269278196994
50.4269278196348
50.4269278195743
50.4269278195179
50.4269278194666
50.4269278194226
50.4269278193921
50.4269278193946
50.4269278194938
50.4269278198946
3501.86998758742
31516.8298914613
31516.8306064441
3501.87006731367
50.426928968983
50.4269289688517
50.4269289687888
50.4269289687446
50.4269289687002
50.4269289686502
50.426928968593
50.4269289685283
50.4269289684565
50.4269289683782
50.4269289682939
50.4269289682042
50.4269289681097
50.4269289680111
50.426928967909
50.4269289678039
50.4269289676965
50.4269289675874
50.4269289674771
50.4269289673661
50.426928967255
50.4269289671442
50.4269289670343
50.4269289669256
50.4269289668186
50.4269289667136
50.4269289666111
50.4269289665112
50.4269289664143
50.4269289663206
50.4269289662304
50.4269289661439
50.426928966061
50.4269289659821
50.4269289659071
50.4269289658361
50.4269289657691
50.4269289657061
50.426928965647
50.4269289655918
50.4269289655407
50.4269289654944
50.4269289654545
50.4269289654263
50.4269289654278
50.4269289655118
3501.87006707267
31516.8306044572
31516.8313232641
3501.87014701277
50.426930116893
50.4269301168448
50.4269301168093
50.4269301167733
50.426930116731
50.4269301166811
50.4269301166235
50.4269301165585
50.4269301164866
50.4269301164083
50.4269301163241
50.4269301162348
50.4269301161408
50.4269301160429
50.4269301159414
50.4269301158373
50.4269301157307
50.4269301156226
50.4269301155134
50.4269301154035
50.4269301152936
50.4269301151841
50.4269301150754
50.4269301149681
50.4269301148624
50.4269301147589
50.4269301146578
50.4269301145593
50.4269301144639
50.4269301143717
50.426930114283
50.4269301141979
50.4269301141166
50.4269301140392
50.4269301139657
50.4269301138963
50.4269301138309
50.4269301137695
50.4269301137121
50.4269301136586
50.4269301136091
50.4269301135639
50.4269301135235
50.4269301134897
50.4269301134691
50.4269301134762
3501.87014677428
31516.8313211584
31516.8320409059
3501.87022676375
50.4269312653666
50.4269312653375
50.4269312653074
50.4269312652722
50.4269312652293
50.4269312651787
50.4269312651204
50.426931265055
50.4269312649829
50.4269312649046
50.4269312648206
50.4269312647316
50.4269312646381
50.4269312645407
50.4269312644401
50.4269312643367
50.4269312642312
50.4269312641241
50.4269312640159
50.4269312639072
50.4269312637986
50.4269312636903
50.426931263583
50.426931263477
50.4269312633727
50.4269312632706
50.4269312631709
50.4269312630739
50.42693126298
50.4269312628893
50.4269312628021
50.4269312627186
50.4269312626388
50.426931262563
50.4269312624911
50.4269312624233
50.4269312623596
50.4269312622998
50.4269312622442
50.4269312621926
50.426931262145
50.4269312621017
50.4269312620628
50.4269312620296
50.4269312620054
50.4269312619957
3501.87022652821
31516.8320387916
31516.8327587465
3501.87030652693
50.4269324139697
50.4269324139439
50.4269324139139
50.4269324138777
50.4269324138337
50.4269324137821
50.4269324137232
50.4269324136572
50.4269324135849
50.4269324135066
50.4269324134228
50.4269324133341
50.4269324132412
50.4269324131444
50.4269324130445
50.426932412942
50.4269324128374
50.4269324127313
50.4269324126243
50.4269324125167
50.4269324124093
50.4269324123023
50.4269324121963
50.4269324120917
50.4269324119889
50.4269324118882
50.4269324117899
50.4269324116945
50.426932411602
50.4269324115129
50.4269324114272
50.4269324113452
50.426932411267
50.4269324111928
50.4269324111226
50.4269324110564
50.4269324109944
50.4269324109365
50.4269324108826
50.4269324108329
50.4269324107873
50.4269324107461
50.4269324107093
50.426932410678
50.4269324106546
50.4269324106426
3501.87030629432
31516.8327566485
31516.8334766336
3501.87038629284
50.4269335626009
50.4269335625747
50.4269335625436
50.4269335625061
50.426933562461
50.4269335624084
50.4269335623487
50.4269335622823
50.4269335622097
50.4269335621313
50.4269335620478
50.4269335619594
50.426933561867
50.4269335617709
50.4269335616717
50.42693356157
50.4269335614664
50.4269335613613
50.4269335612554
50.4269335611491
50.4269335610429
50.4269335609372
50.4269335608325
50.4269335607293
50.4269335606279
50.4269335605287
50.4269335604319
50.4269335603379
50.4269335602471
50.4269335601594
50.4269335600754
50.4269335599949
50.4269335599183
50.4269335598457
50.4269335597772
50.4269335597127
50.4269335596523
50.4269335595962
50.4269335595442
50.4269335594965
50.4269335594529
50.4269335594138
50.4269335593792
50.42693355935
50.4269335593285
50.4269335593174
3501.87038606326
31516.8334745605
31516.8341945309
3501.8704660593
50.4269347112375
50.42693471121
50.4269347111776
50.4269347111387
50.4269347110924
50.4269347110389
50.4269347109785
50.4269347109116
50.4269347108388
50.4269347107605
50.426934710677
50.426934710589
50.426934710497
50.4269347104016
50.4269347103032
50.4269347102023
50.4269347100997
50.4269347099957
50.4269347098909
50.4269347097857
50.4269347096807
50.4269347095764
50.4269347094731
50.4269347093713
50.4269347092713
50.4269347091735
50.4269347090782
50.4269347089858
50.4269347088964
50.4269347088104
50.4269347087279
50.4269347086491
50.4269347085741
50.4269347085031
50.4269347084362
50.4269347083734
50.4269347083149
50.4269347082605
50.4269347082104
50.4269347081646
50.4269347081231
50.426934708086
50.4269347080536
50.4269347080266
50.4269347080071
50.4269347079977
3501.87046583277
31516.8341924858
31516.8349124301
3501.87054582585
50.4269358598746
50.4269358598457
50.426935859812
50.4269358597718
50.4269358597243
50.4269358596699
50.4269358596088
50.4269358595415
50.4269358594685
50.4269358593901
50.4269358593068
50.4269358592192
50.4269358591277
50.4269358590328
50.4269358589351
50.4269358588352
50.4269358587335
50.4269358586305
50.4269358585268
50.4269358584229
50.4269358583192
50.4269358582161
50.4269358581142
50.4269358580138
50.4269358579152
50.4269358578189
50.4269358577251
50.4269358576342
50.4269358575464
50.4269358574619
50.426935857381
50.4269358573038
50.4269358572304
50.4269358571611
50.4269358570959
50.4269358570348
50.426935856978
50.4269358569254
50.4269358568772
50.4269358568334
50.4269358567939
50.4269358567589
50.4269358567287
50.4269358567038
50.4269358566862
50.4269358566788
3501.87054560238
31516.8349104104
31516.8356303297
3501.87062559239
50.4269370085115
50.4269370084812
50.4269370084462
50.4269370084048
50.4269370083563
50.426937008301
50.4269370082392
50.4269370081715
50.4269370080982
50.4269370080198
50.4269370079367
50.4269370078494
50.4269370077584
50.4269370076641
50.4269370075672
50.4269370074681
50.4269370073673
50.4269370072654
50.4269370071628
50.4269370070601
50.4269370069576
50.4269370068558
50.4269370067553
50.4269370066562
50.4269370065591
50.4269370064643
50.426937006372
50.4269370062826
50.4269370061963
50.4269370061134
50.4269370060341
50.4269370059585
50.4269370058868
50.4269370058191
50.4269370057556
50.4269370056962
50.4269370056412
50.4269370055905
50.4269370055441
50.4269370055021
50.4269370054647
50.4269370054318
50.4269370054037
50.4269370053809
50.4269370053653
50.4269370053597
3501.87062537195
31516.8356283386
31516.8363482293
3501.87070535894
50.4269381571486
50.4269381571169
50.4269381570807
50.4269381570381
50.4269381569885
50.4269381569323
50.4269381568699
50.4269381568017
50.4269381567282
50.4269381566498
50.4269381565668
50.4269381564799
50.4269381563893
50.4269381562957
50.4269381561995
50.4269381561012
50.4269381560014
50.4269381559005
50.426938155799
50.4269381556975
50.4269381555963
50.4269381554958
50.4269381553966
50.4269381552989
50.4269381552032
50.4269381551098
50.4269381550191
50.4269381549312
50.4269381548464
50.4269381547651
50.4269381546873
50.4269381546133
50.4269381545433
50.4269381544773
50.4269381544154
50.4269381543578
50.4269381543045
50.4269381542556
50.4269381542111
50.4269381541711
50.4269381541357
50.4269381541048
50.4269381540788
50.426938154058
50.4269381540443
50.4269381540407
3501.87070514161
31516.8363462659
31516.8370661293
3501.87078512553
50.4269393057862
50.4269393057531
50.4269393057157
50.4269393056719
50.4269393056212
50.4269393055642
50.4269393055012
50.4269393054327
50.426939305359
50.4269393052805
50.4269393051976
50.426939305111
50.4269393050209
50.4269393049279
50.4269393048324
50.426939304735
50.4269393046361
50.4269393045362
50.4269393044358
50.4269393043354
50.4269393042355
50.4269393041363
50.4269393040384
50.4269393039422
50.4269393038479
50.4269393037559
50.4269393036666
50.4269393035802
50.426939303497
50.4269393034172
50.426939303341
50.4269393032686
50.4269393032002
50.4269393031358
50.4269393030756
50.4269393030197
50.4269393029682
50.4269393029211
50.4269393028785
50.4269393028404
50.4269393028069
50.4269393027781
50.4269393027541
50.4269393027354
50.4269393027236
50.4269393027218
3501.87078491124
31516.8370641944
31516.83778403
3501.8708648922
50.4269404544248
50.4269404543903
50.4269404543517
50.4269404543067
50.4269404542551
50.4269404541973
50.4269404541336
50.4269404540647
50.4269404539907
50.4269404539122
50.4269404538296
50.4269404537432
50.4269404536536
50.4269404535612
50.4269404534664
50.4269404533698
50.4269404532718
50.4269404531729
50.4269404530737
50.4269404529744
50.4269404528756
50.4269404527777
50.4269404526812
50.4269404525863
50.4269404524934
50.4269404524029
50.426940452315
50.4269404522301
50.4269404521484
50.4269404520702
50.4269404519955
50.4269404519247
50.4269404518578
50.4269404517952
50.4269404517366
50.4269404516824
50.4269404516326
50.4269404515873
50.4269404515466
50.4269404515104
50.4269404514789
50.426940451452
50.42694045143
50.4269404514134
50.4269404514034
50.4269404514035
3501.87086468095
31516.8377821222
31516.8385019317
3501.87094465896
50.4269416030648
50.4269416030289
50.4269416029891
50.426941602943
50.4269416028904
50.4269416028318
50.4269416027675
50.4269416026981
50.426941602624
50.4269416025455
50.426941602463
50.4269416023769
50.4269416022877
50.4269416021959
50.4269416021018
50.426941602006
50.426941601909
50.4269416018111
50.4269416017128
50.4269416016148
50.4269416015172
50.4269416014205
50.4269416013252
50.4269416012317
50.4269416011401
50.4269416010511
50.4269416009646
50.4269416008812
50.426941600801
50.4269416007242
50.4269416006511
50.4269416005819
50.4269416005166
50.4269416004555
50.4269416003986
50.4269416003461
50.4269416002981
50.4269416002545
50.4269416002156
50.4269416001813
50.4269416001517
50.4269416001268
50.4269416001068
50.4269416000921
50.426941600084
50.4269416000861
3501.87094445064
31516.8385000506
31516.8392198345
3501.87102442587
50.4269427517069
50.4269427516694
50.4269427516284
50.426942751581
50.4269427515275
50.4269427514681
50.4269427514033
50.4269427513335
50.4269427512592
50.4269427511806
50.4269427510982
50.4269427510125
50.4269427509237
50.4269427508324
50.4269427507391
50.426942750644
50.4269427505479
50.4269427504509
50.4269427503538
50.4269427502568
50.4269427501604
50.426942750065
50.4269427499709
50.4269427498786
50.4269427497885
50.4269427497008
50.4269427496158
50.4269427495338
50.426942749455
50.4269427493797
50.4269427493082
50.4269427492404
50.4269427491768
50.4269427491172
50.426942749062
50.4269427490111
50.4269427489647
50.426942748923
50.4269427488857
50.4269427488533
50.4269427488256
50.4269427488027
50.4269427487846
50.4269427487719
50.4269427487657
50.4269427487697
3501.87102422042
31516.8392179776
31516.839937739
3501.87110419294
50.4269439003512
50.4269439003121
50.4269439002699
50.4269439002214
50.4269439001669
50.4269439001068
50.4269439000413
50.4269438999711
50.4269438998966
50.426943899818
50.4269438997358
50.4269438996503
50.426943899562
50.4269438994712
50.4269438993785
50.4269438992843
50.426943899189
50.426943899093
50.4269438989968
50.4269438989009
50.4269438988056
50.4269438987114
50.4269438986186
50.4269438985276
50.4269438984388
50.4269438983524
50.4269438982688
50.4269438981882
50.4269438981108
50.426943898037
50.4269438979669
50.4269438979007
50.4269438978385
50.4269438977806
50.4269438977269
50.4269438976777
50.426943897633
50.4269438975928
50.4269438975574
50.4269438975268
50.426943897501
50.4269438974799
50.4269438974638
50.4269438974531
50.4269438974487
50.4269438974547
3501.87110399037
31516.8399359087
31516.8406556452
3501.87118396021
50.4269450489982
50.4269450489574
50.426945048914
50.4269450488643
50.4269450488088
50.426945048748
50.4269450486819
50.4269450486114
50.4269450485366
50.426945048458
50.4269450483759
50.4269450482907
50.4269450482028
50.4269450481126
50.4269450480205
50.426945047927
50.4269450478325
50.4269450477375
50.4269450476423
50.4269450475474
50.4269450474532
50.4269450473602
50.4269450472686
50.4269450471789
50.4269450470913
50.4269450470062
50.4269450469239
50.4269450468447
50.4269450467688
50.4269450466964
50.4269450466277
50.4269450465629
50.4269450465022
50.4269450464458
50.4269450463937
50.426945046346
50.4269450463029
50.4269450462645
50.4269450462308
50.4269450462019
50.4269450461779
50.4269450461587
50.4269450461444
50.4269450461358
50.4269450461332
50.4269450461413
3501.87118376044
31516.840653841
31516.8413735535
3501.8712637277
50.4269461976482
50.4269461976056
50.426946197561
50.42694619751
50.4269461974536
50.426946197392
50.4269461973255
50.4269461972546
50.4269461971796
50.426946197101
50.426946197019
50.426946196934
50.4269461968465
50.4269461967568
50.4269461966654
50.4269461965726
50.4269461964789
50.4269461963847
50.4269461962905
50.4269461961966
50.4269461961036
50.4269461960116
50.4269461959212
50.4269461958326
50.4269461957463
50.4269461956625
50.4269461955816
50.4269461955036
50.4269461954291
50.426946195358
50.4269461952907
50.4269461952274
50.4269461951681
50.4269461951131
50.4269461950625