/*--------------------------------*- C++ -*----------------------------------*\
  =========                 |
  \\      /  F ield         | OpenFOAM: The Open Source CFD Toolbox
   \\    /   O peration     | Website:  https://openfoam.org
    \\  /    A nd           | Version:  10
     \\/     M anipulation  |
\*---------------------------------------------------------------------------*/
FoamFile
{
    format      ascii;
    class       volScalarField;
    location    "3.6";
    object      p;
}
// * * * * * * * * * * * * * * * * * * * * * * * * * * * * * * * * * * * * * //

dimensions      [1 -1 -2 0 0 0 0];

internalField   nonuniform List<scalar> 
2500
(
100078.309026962
100078.309028594
100078.309029563
100078.309030338
100078.309030769
100078.309031031
100078.309031206
100078.309031332
100078.309031439
100078.309031542
100078.309031645
100078.309031754
100078.309031869
100078.309031992
100078.309032122
100078.30903226
100078.309032405
100078.309032556
100078.309032714
100078.309032876
100078.309033043
100078.309033214
100078.309033387
100078.309033563
100078.309033739
100078.309033916
100078.309034093
100078.309034269
100078.309034442
100078.309034613
100078.309034781
100078.309034945
100078.309035104
100078.309035258
100078.309035406
100078.309035547
100078.309035681
100078.309035807
100078.309035923
100078.309036029
100078.309036121
100078.309036196
100078.309036246
100078.309036257
100078.309036198
100078.309036032
100078.309035676
100078.30903495
100078.309033993
100078.309032356
100078.306781867
100078.306783203
100078.306783943
100078.306784611
100078.30678499
100078.306785225
100078.306785385
100078.306785503
100078.306785606
100078.306785707
100078.30678581
100078.306785918
100078.306786034
100078.306786157
100078.306786288
100078.306786426
100078.306786571
100078.306786722
100078.30678688
100078.306787042
100078.306787209
100078.30678738
100078.306787553
100078.306787729
100078.306787906
100078.306788083
100078.306788259
100078.306788435
100078.306788609
100078.30678878
100078.306788947
100078.306789111
100078.30678927
100078.306789423
100078.306789571
100078.306789712
100078.306789846
100078.306789972
100078.306790088
100078.306790194
100078.306790287
100078.306790363
100078.306790416
100078.306790436
100078.306790392
100078.306790253
100078.306789948
100078.306789331
100078.306788602
100078.306787266
100078.304523026
100078.304523742
100078.304523978
100078.304524349
100078.304524573
100078.304524728
100078.304524851
100078.304524951
100078.304525047
100078.304525144
100078.304525246
100078.304525355
100078.30452547
100078.304525594
100078.304525724
100078.304525863
100078.304526008
100078.30452616
100078.304526317
100078.30452648
100078.304526647
100078.304526817
100078.304526991
100078.304527166
100078.304527343
100078.30452752
100078.304527697
100078.304527872
100078.304528046
100078.304528217
100078.304528384
100078.304528548
100078.304528707
100078.30452886
100078.304529008
100078.304529149
100078.304529282
100078.304529408
100078.304529524
100078.30452963
100078.304529724
100078.304529804
100078.304529865
100078.304529902
100078.304529897
100078.304529837
100078.304529686
100078.304529365
100078.304529147
100078.304528415
100078.302255301
100078.302255414
100078.302255291
100078.302255379
100078.302255457
100078.302255537
100078.302255624
100078.302255709
100078.302255798
100078.302255893
100078.302255994
100078.302256102
100078.302256217
100078.30225634
100078.302256471
100078.30225661
100078.302256755
100078.302256907
100078.302257064
100078.302257227
100078.302257394
100078.302257565
100078.302257738
100078.302257914
100078.30225809
100078.302258267
100078.302258444
100078.302258619
100078.302258793
100078.302258964
100078.302259131
100078.302259294
100078.302259453
100078.302259606
100078.302259754
100078.302259894
100078.302260028
100078.302260153
100078.30226027
100078.302260376
100078.302260472
100078.302260554
100078.302260623
100078.302260676
100078.302260705
100078.302260721
100078.302260717
100078.30226068
100078.30226083
100078.302260702
100078.299981647
100078.299981428
100078.299981173
100078.299981098
100078.29998109
100078.299981119
100078.299981181
100078.299981252
100078.299981335
100078.299981426
100078.299981526
100078.299981633
100078.299981748
100078.299981871
100078.299982002
100078.29998214
100078.299982286
100078.299982438
100078.299982595
100078.299982758
100078.299982925
100078.299983096
100078.299983269
100078.299983444
100078.299983621
100078.299983798
100078.299983974
100078.29998415
100078.299984323
100078.299984493
100078.299984661
100078.299984824
100078.299984982
100078.299985135
100078.299985282
100078.299985423
100078.299985556
100078.299985682
100078.299985798
100078.299985906
100078.299986003
100078.299986089
100078.299986164
100078.29998623
100078.299986286
100078.299986353
100078.299986436
100078.299986564
100078.299986852
100078.299987067
100078.297704589
100078.29770427
100078.297704003
100078.297703854
100078.297703804
100078.297703803
100078.297703848
100078.297703909
100078.297703987
100078.297704075
100078.297704172
100078.297704279
100078.297704393
100078.297704516
100078.297704647
100078.297704785
100078.297704931
100078.297705083
100078.29770524
100078.297705403
100078.29770557
100078.29770574
100078.297705914
100078.297706089
100078.297706265
100078.297706442
100078.297706618
100078.297706793
100078.297706966
100078.297707137
100078.297707304
100078.297707467
100078.297707625
100078.297707778
100078.297707925
100078.297708065
100078.297708198
100078.297708324
100078.297708441
100078.297708549
100078.297708648
100078.297708737
100078.297708818
100078.297708895
100078.297708968
100078.297709066
100078.297709191
100078.297709394
100078.297709696
100078.297710022
100078.295425856
100078.295425558
100078.295425328
100078.295425162
100078.295425098
100078.295425082
100078.295425115
100078.295425169
100078.295425242
100078.295425327
100078.295425423
100078.295425528
100078.295425642
100078.295425765
100078.295425896
100078.295426034
100078.295426179
100078.295426331
100078.295426488
100078.295426651
100078.295426818
100078.295426989
100078.295427162
100078.295427337
100078.295427513
100078.295427689
100078.295427865
100078.29542804
100078.295428213
100078.295428383
100078.29542855
100078.295428712
100078.29542887
100078.295429023
100078.295429169
100078.29542931
100078.295429443
100078.295429568
100078.295429686
100078.295429795
100078.295429896
100078.295429988
100078.295430074
100078.295430158
100078.295430243
100078.295430357
100078.295430497
100078.295430718
100078.295430981
100078.295431292
100078.293146401
100078.293146165
100078.293145983
100078.293145828
100078.293145765
100078.293145744
100078.29314577
100078.293145818
100078.293145887
100078.293145969
100078.293146063
100078.293146168
100078.293146281
100078.293146403
100078.293146534
100078.293146672
100078.293146817
100078.293146969
100078.293147127
100078.293147289
100078.293147456
100078.293147626
100078.293147799
100078.293147974
100078.29314815
100078.293148326
100078.293148502
100078.293148676
100078.293148849
100078.293149019
100078.293149185
100078.293149347
100078.293149505
100078.293149657
100078.293149803
100078.293149943
100078.293150076
100078.293150202
100078.29315032
100078.29315043
100078.293150533
100078.293150628
100078.293150718
100078.293150808
100078.2931509
100078.29315102
100078.293151159
100078.293151369
100078.293151582
100078.293151832
100078.290866674
100078.290866499
100078.290866362
100078.29086623
100078.290866174
100078.290866153
100078.290866175
100078.29086622
100078.290866285
100078.290866366
100078.290866458
100078.290866561
100078.290866674
100078.290866796
100078.290866927
100078.290867065
100078.29086721
100078.290867361
100078.290867519
100078.290867681
100078.290867848
100078.290868018
100078.290868191
100078.290868365
100078.290868541
100078.290868717
100078.290868892
100078.290869066
100078.290869238
100078.290869408
100078.290869574
100078.290869735
100078.290869893
100078.290870044
100078.290870191
100078.29087033
100078.290870464
100078.290870589
100078.290870708
100078.290870819
100078.290870923
100078.29087102
100078.290871113
100078.290871207
100078.290871303
100078.290871423
100078.290871555
100078.290871743
100078.290871909
100078.290872096
100078.28858686
100078.288586735
100078.288586633
100078.288586525
100078.28858648
100078.288586461
100078.288586482
100078.288586525
100078.288586588
100078.288586667
100078.288586758
100078.28858686
100078.288586973
100078.288587095
100078.288587225
100078.288587363
100078.288587508
100078.288587659
100078.288587816
100078.288587979
100078.288588145
100078.288588315
100078.288588488
100078.288588662
100078.288588837
100078.288589013
100078.288589188
100078.288589362
100078.288589533
100078.288589702
100078.288589867
100078.288590029
100078.288590186
100078.288590337
100078.288590483
100078.288590622
100078.288590755
100078.288590881
100078.288591
100078.288591112
100078.288591217
100078.288591316
100078.288591411
100078.288591507
100078.288591605
100078.288591722
100078.288591844
100078.288592006
100078.288592135
100078.288592272
100078.286307024
100078.286306935
100078.28630686
100078.286306776
100078.28630674
100078.286306727
100078.286306748
100078.28630679
100078.286306852
100078.28630693
100078.28630702
100078.286307122
100078.286307234
100078.286307355
100078.286307485
100078.286307623
100078.286307768
100078.286307919
100078.286308076
100078.286308238
100078.286308405
100078.286308574
100078.286308747
100078.286308921
100078.286309096
100078.286309271
100078.286309445
100078.286309619
100078.28630979
100078.286309958
100078.286310123
100078.286310284
100078.28631044
100078.286310591
100078.286310737
100078.286310876
100078.286311009
100078.286311135
100078.286311254
100078.286311366
100078.286311472
100078.286311572
100078.286311669
100078.286311766
100078.286311863
100078.286311975
100078.286312087
100078.286312225
100078.286312326
100078.286312425
100078.284027187
100078.284027122
100078.284027068
100078.284027004
100078.284026978
100078.284026971
100078.284026994
100078.284027036
100078.284027098
100078.284027174
100078.284027264
100078.284027365
100078.284027477
100078.284027598
100078.284027728
100078.284027866
100078.28402801
100078.284028162
100078.284028319
100078.28402848
100078.284028647
100078.284028816
100078.284028988
100078.284029162
100078.284029336
100078.284029511
100078.284029685
100078.284029858
100078.284030028
100078.284030196
100078.284030361
100078.284030521
100078.284030677
100078.284030827
100078.284030972
100078.284031111
100078.284031244
100078.284031369
100078.284031489
100078.284031601
100078.284031707
100078.284031808
100078.284031906
100078.284032002
100078.284032099
100078.284032205
100078.284032306
100078.284032424
100078.284032503
100078.284032576
100078.281747351
100078.281747304
100078.281747266
100078.281747219
100078.281747202
100078.281747201
100078.281747226
100078.28174727
100078.281747331
100078.281747407
100078.281747497
100078.281747598
100078.281747709
100078.28174783
100078.28174796
100078.281748098
100078.281748242
100078.281748393
100078.28174855
100078.281748712
100078.281748878
100078.281749047
100078.281749218
100078.281749392
100078.281749566
100078.28174974
100078.281749914
100078.281750086
100078.281750256
100078.281750423
100078.281750587
100078.281750747
100078.281750902
100078.281751052
100078.281751196
100078.281751335
100078.281751467
100078.281751593
100078.281751712
100078.281751824
100078.281751931
100078.281752032
100078.281752129
100078.281752225
100078.281752319
100078.281752419
100078.281752511
100078.281752612
100078.281752675
100078.28175273
100078.279467518
100078.279467484
100078.279467457
100078.279467424
100078.279467416
100078.279467421
100078.279467448
100078.279467494
100078.279467555
100078.279467632
100078.279467721
100078.279467822
100078.279467934
100078.279468055
100078.279468184
100078.279468322
100078.279468466
100078.279468617
100078.279468774
100078.279468935
100078.279469101
100078.27946927
100078.279469441
100078.279469614
100078.279469787
100078.279469961
100078.279470134
100078.279470306
100078.279470475
100078.279470642
100078.279470805
100078.279470964
100078.279471119
100078.279471268
100078.279471412
100078.27947155
100078.279471682
100078.279471807
100078.279471926
100078.279472038
100078.279472145
100078.279472246
100078.279472343
100078.279472437
100078.279472528
100078.279472622
100078.279472706
100078.279472792
100078.279472844
100078.279472886
100078.277187686
100078.277187661
100078.277187643
100078.277187622
100078.277187621
100078.277187631
100078.277187662
100078.277187709
100078.277187772
100078.277187849
100078.277187939
100078.27718804
100078.277188151
100078.277188272
100078.277188401
100078.277188539
100078.277188683
100078.277188834
100078.277188991
100078.277189152
100078.277189317
100078.277189486
100078.277189656
100078.277189829
100078.277190002
100078.277190175
100078.277190348
100078.277190519
100078.277190688
100078.277190854
100078.277191016
100078.277191175
100078.277191329
100078.277191477
100078.277191621
100078.277191758
100078.277191889
100078.277192014
100078.277192133
100078.277192245
100078.277192351
100078.277192451
100078.277192547
100078.277192639
100078.277192728
100078.277192815
100078.277192893
100078.277192967
100078.27719301
100078.277193043
100078.274907855
100078.274907837
100078.274907826
100078.274907814
100078.274907819
100078.274907835
100078.274907869
100078.274907918
100078.274907982
100078.27490806
100078.27490815
100078.274908251
100078.274908363
100078.274908483
100078.274908613
100078.27490875
100078.274908895
100078.274909046
100078.274909202
100078.274909363
100078.274909528
100078.274909696
100078.274909866
100078.274910038
100078.274910211
100078.274910384
100078.274910555
100078.274910726
100078.274910894
100078.274911059
100078.274911221
100078.274911379
100078.274911532
100078.27491168
100078.274911823
100078.27491196
100078.27491209
100078.274912215
100078.274912333
100078.274912444
100078.274912549
100078.274912649
100078.274912744
100078.274912834
100078.274912919
100078.274913001
100078.274913072
100078.274913138
100078.274913174
100078.2749132
100078.272628024
100078.272628011
100078.272628006
100078.272628001
100078.272628012
100078.272628033
100078.27262807
100078.272628121
100078.272628187
100078.272628265
100078.272628356
100078.272628457
100078.272628569
100078.27262869
100078.27262882
100078.272628957
100078.272629101
100078.272629252
100078.272629408
100078.272629569
100078.272629733
100078.272629901
100078.272630071
100078.272630243
100078.272630415
100078.272630587
100078.272630758
100078.272630928
100078.272631095
100078.27263126
100078.272631421
100078.272631578
100078.272631731
100078.272631878
100078.27263202
100078.272632156
100078.272632286
100078.27263241
100078.272632527
100078.272632638
100078.272632742
100078.272632841
100078.272632934
100078.272633022
100078.272633104
100078.272633181
100078.272633247
100078.272633304
100078.272633335
100078.272633357
100078.270348193
100078.270348184
100078.270348183
100078.270348185
100078.2703482
100078.270348226
100078.270348266
100078.270348319
100078.270348386
100078.270348466
100078.270348557
100078.270348659
100078.270348771
100078.270348892
100078.270349022
100078.270349159
100078.270349304
100078.270349454
100078.27034961
100078.270349771
100078.270349935
100078.270350102
100078.270350272
100078.270350443
100078.270350614
100078.270350786
100078.270350956
100078.270351125
100078.270351292
100078.270351456
100078.270351616
100078.270351773
100078.270351924
100078.270352071
100078.270352212
100078.270352347
100078.270352477
100078.2703526
100078.270352716
100078.270352826
100078.270352929
100078.270353027
100078.270353118
100078.270353204
100078.270353283
100078.270353356
100078.270353417
100078.270353468
100078.270353495
100078.270353513
100078.268068362
100078.268068356
100078.268068358
100078.268068365
100078.268068385
100078.268068414
100078.268068457
100078.268068513
100078.268068582
100078.268068662
100078.268068754
100078.268068857
100078.268068969
100078.268069091
100078.268069221
100078.268069358
100078.268069502
100078.268069653
100078.268069809
100078.268069969
100078.268070133
100078.2680703
100078.268070469
100078.268070639
100078.26807081
100078.268070981
100078.268071151
100078.268071319
100078.268071485
100078.268071648
100078.268071808
100078.268071963
100078.268072114
100078.26807226
100078.2680724
100078.268072535
100078.268072663
100078.268072785
100078.268072901
100078.26807301
100078.268073112
100078.268073208
100078.268073298
100078.268073381
100078.268073458
100078.268073527
100078.268073584
100078.268073629
100078.268073653
100078.268073668
100078.265788531
100078.265788527
100078.265788532
100078.265788544
100078.265788567
100078.2657886
100078.265788646
100078.265788704
100078.265788774
100078.265788856
100078.265788948
100078.265789052
100078.265789164
100078.265789286
100078.265789416
100078.265789554
100078.265789698
100078.265789849
100078.265790004
100078.265790164
100078.265790328
100078.265790494
100078.265790663
100078.265790833
100078.265791003
100078.265791173
100078.265791342
100078.26579151
100078.265791675
100078.265791838
100078.265791996
100078.265792151
100078.265792301
100078.265792446
100078.265792585
100078.265792719
100078.265792846
100078.265792967
100078.265793082
100078.26579319
100078.265793291
100078.265793386
100078.265793474
100078.265793555
100078.265793628
100078.265793694
100078.265793747
100078.265793789
100078.26579381
100078.265793823
100078.2635087
100078.263508698
100078.263508705
100078.26350872
100078.263508747
100078.263508783
100078.263508831
100078.263508891
100078.263508963
100078.263509046
100078.26350914
100078.263509244
100078.263509357
100078.263509479
100078.26350961
100078.263509747
100078.263509892
100078.263510042
100078.263510197
100078.263510357
100078.26351052
100078.263510686
100078.263510854
100078.263511024
100078.263511193
100078.263511363
100078.263511531
100078.263511698
100078.263511863
100078.263512024
100078.263512182
100078.263512336
100078.263512485
100078.263512629
100078.263512767
100078.2635129
100078.263513027
100078.263513147
100078.26351326
100078.263513367
100078.263513467
100078.26351356
100078.263513646
100078.263513725
100078.263513796
100078.263513858
100078.263513908
100078.263513947
100078.263513966
100078.263513977
100078.261228868
100078.261228868
100078.261228878
100078.261228896
100078.261228925
100078.261228964
100078.261229015
100078.261229077
100078.26122915
100078.261229234
100078.261229329
100078.261229434
100078.261229548
100078.26122967
100078.261229801
100078.261229939
100078.261230083
100078.261230233
100078.261230388
100078.261230548
100078.261230711
100078.261230876
100078.261231044
100078.261231213
100078.261231382
100078.261231551
100078.261231718
100078.261231884
100078.261232048
100078.261232209
100078.261232366
100078.261232518
100078.261232667
100078.26123281
100078.261232947
100078.261233079
100078.261233204
100078.261233324
100078.261233436
100078.261233542
100078.26123364
100078.261233732
100078.261233816
100078.261233893
100078.261233961
100078.26123402
100078.261234068
100078.261234103
100078.261234121
100078.26123413
100078.258949036
100078.258949038
100078.258949049
100078.25894907
100078.258949102
100078.258949144
100078.258949197
100078.258949261
100078.258949336
100078.258949421
100078.258949517
100078.258949622
100078.258949737
100078.258949859
100078.25894999
100078.258950128
100078.258950273
100078.258950423
100078.258950578
100078.258950737
100078.2589509
100078.258951065
100078.258951232
100078.2589514
100078.258951569
100078.258951737
100078.258951904
100078.258952069
100078.258952232
100078.258952391
100078.258952547
100078.258952699
100078.258952847
100078.258952989
100078.258953125
100078.258953256
100078.25895338
100078.258953498
100078.25895361
100078.258953714
100078.258953811
100078.258953901
100078.258953984
100078.258954058
100078.258954125
100078.258954181
100078.258954226
100078.258954259
100078.258954275
100078.258954283
100078.256669205
100078.256669208
100078.256669221
100078.256669244
100078.256669278
100078.256669322
100078.256669377
100078.256669443
100078.256669519
100078.256669606
100078.256669703
100078.256669809
100078.256669924
100078.256670047
100078.256670179
100078.256670317
100078.256670461
100078.256670611
100078.256670766
100078.256670925
100078.256671087
100078.256671252
100078.256671419
100078.256671586
100078.256671754
100078.256671921
100078.256672088
100078.256672252
100078.256672414
100078.256672573
100078.256672728
100078.256672879
100078.256673025
100078.256673166
100078.256673302
100078.256673432
100078.256673555
100078.256673672
100078.256673782
100078.256673885
100078.256673981
100078.256674069
100078.25667415
100078.256674223
100078.256674287
100078.256674341
100078.256674384
100078.256674414
100078.256674429
100078.256674436
100078.254389374
100078.254389378
100078.254389393
100078.254389418
100078.254389454
100078.2543895
100078.254389557
100078.254389625
100078.254389703
100078.254389791
100078.254389888
100078.254389995
100078.254390111
100078.254390235
100078.254390366
100078.254390504
100078.254390649
100078.254390799
100078.254390953
100078.254391112
100078.254391274
100078.254391438
100078.254391604
100078.254391771
100078.254391939
100078.254392105
100078.254392271
100078.254392434
100078.254392595
100078.254392753
100078.254392908
100078.254393058
100078.254393203
100078.254393343
100078.254393477
100078.254393606
100078.254393728
100078.254393844
100078.254393953
100078.254394055
100078.254394149
100078.254394236
100078.254394315
100078.254394386
100078.254394447
100078.254394499
100078.25439454
100078.254394569
100078.254394583
100078.254394589
100078.252109543
100078.252109549
100078.252109564
100078.252109591
100078.252109629
100078.252109677
100078.252109736
100078.252109806
100078.252109885
100078.252109974
100078.252110073
100078.252110181
100078.252110297
100078.252110421
100078.252110553
100078.252110691
100078.252110836
100078.252110986
100078.25211114
100078.252111299
100078.25211146
100078.252111624
100078.25211179
100078.252111956
100078.252112123
100078.252112289
100078.252112453
100078.252112616
100078.252112776
100078.252112933
100078.252113087
100078.252113236
100078.25211338
100078.252113519
100078.252113652
100078.25211378
100078.252113901
100078.252114015
100078.252114123
100078.252114223
100078.252114316
100078.252114402
100078.252114479
100078.252114548
100078.252114608
100078.252114658
100078.252114697
100078.252114723
100078.252114736
100078.252114741
100078.249829712
100078.249829719
100078.249829736
100078.249829765
100078.249829805
100078.249829855
100078.249829916
100078.249829986
100078.249830067
100078.249830158
100078.249830257
100078.249830366
100078.249830483
100078.249830607
100078.249830739
100078.249830878
100078.249831023
100078.249831173
100078.249831327
100078.249831485
100078.249831646
100078.24983181
100078.249831975
100078.249832141
100078.249832307
100078.249832472
100078.249832636
100078.249832798
100078.249832957
100078.249833113
100078.249833265
100078.249833413
100078.249833557
100078.249833695
100078.249833827
100078.249833953
100078.249834073
100078.249834187
100078.249834293
100078.249834392
100078.249834483
100078.249834567
100078.249834643
100078.24983471
100078.249834768
100078.249834816
100078.249834853
100078.249834878
100078.24983489
100078.249834894
100078.247549882
100078.247549891
100078.247549909
100078.247549939
100078.24754998
100078.247550032
100078.247550095
100078.247550167
100078.247550249
100078.247550341
100078.247550442
100078.247550551
100078.247550668
100078.247550794
100078.247550926
100078.247551065
100078.24755121
100078.247551359
100078.247551514
100078.247551672
100078.247551832
100078.247551995
100078.24755216
100078.247552325
100078.24755249
100078.247552655
100078.247552818
100078.247552979
100078.247553137
100078.247553293
100078.247553444
100078.247553591
100078.247553733
100078.24755387
100078.247554002
100078.247554127
100078.247554246
100078.247554358
100078.247554463
100078.24755456
100078.24755465
100078.247554733
100078.247554807
100078.247554872
100078.247554928
100078.247554974
100078.24755501
100078.247555034
100078.247555045
100078.247555047
100078.245270053
100078.245270063
100078.245270082
100078.245270114
100078.245270157
100078.245270211
100078.245270275
100078.245270349
100078.245270432
100078.245270525
100078.245270626
100078.245270736
100078.245270855
100078.24527098
100078.245271113
100078.245271252
100078.245271397
100078.245271547
100078.245271701
100078.245271858
100078.245272019
100078.245272181
100078.245272345
100078.24527251
100078.245272675
100078.245272838
100078.245273001
100078.245273161
100078.245273318
100078.245273473
100078.245273623
100078.245273769
100078.24527391
100078.245274046
100078.245274176
100078.245274301
100078.245274418
100078.245274529
100078.245274633
100078.245274729
100078.245274818
100078.245274898
100078.245274971
100078.245275034
100078.245275089
100078.245275133
100078.245275168
100078.24527519
100078.245275199
100078.245275201
100078.242990225
100078.242990235
100078.242990256
100078.24299029
100078.242990334
100078.24299039
100078.242990455
100078.24299053
100078.242990615
100078.242990709
100078.242990812
100078.242990922
100078.242991041
100078.242991167
100078.242991301
100078.24299144
100078.242991585
100078.242991734
100078.242991888
100078.242992046
100078.242992206
100078.242992368
100078.242992531
100078.242992695
100078.242992859
100078.242993022
100078.242993184
100078.242993343
100078.2429935
100078.242993653
100078.242993803
100078.242993948
100078.242994088
100078.242994223
100078.242994352
100078.242994475
100078.242994591
100078.242994701
100078.242994803
100078.242994898
100078.242994985
100078.242995065
100078.242995136
100078.242995198
100078.24299525
100078.242995293
100078.242995326
100078.242995346
100078.242995355
100078.242995356
100078.240710397
100078.240710409
100078.240710431
100078.240710466
100078.240710512
100078.24071057
100078.240710637
100078.240710713
100078.240710799
100078.240710894
100078.240710998
100078.240711109
100078.240711229
100078.240711356
100078.240711489
100078.240711628
100078.240711773
100078.240711923
100078.240712077
100078.240712234
100078.240712394
100078.240712555
100078.240712718
100078.240712882
100078.240713045
100078.240713207
100078.240713368
100078.240713527
100078.240713683
100078.240713835
100078.240713983
100078.240714128
100078.240714267
100078.2407144
100078.240714528
100078.24071465
100078.240714765
100078.240714874
100078.240714975
100078.240715068
100078.240715154
100078.240715232
100078.240715301
100078.240715362
100078.240715413
100078.240715454
100078.240715485
100078.240715504
100078.240715512
100078.240715512
100078.238430571
100078.238430584
100078.238430607
100078.238430645
100078.238430692
100078.238430751
100078.238430819
100078.238430897
100078.238430985
100078.238431081
100078.238431185
100078.238431297
100078.238431417
100078.238431545
100078.238431678
100078.238431818
100078.238431963
100078.238432113
100078.238432266
100078.238432423
100078.238432583
100078.238432744
100078.238432906
100078.238433069
100078.238433232
100078.238433393
100078.238433553
100078.238433711
100078.238433866
100078.238434018
100078.238434165
100078.238434308
100078.238434447
100078.238434579
100078.238434706
100078.238434827
100078.238434941
100078.238435048
100078.238435148
100078.23843524
100078.238435324
100078.238435401
100078.238435469
100078.238435527
100078.238435577
100078.238435616
100078.238435646
100078.238435664
100078.23843567
100078.238435669
100078.236150746
100078.236150761
100078.236150785
100078.236150824
100078.236150873
100078.236150934
100078.236151004
100078.236151083
100078.236151172
100078.236151269
100078.236151374
100078.236151487
100078.236151608
100078.236151735
100078.236151869
100078.236152009
100078.236152154
100078.236152304
100078.236152457
100078.236152614
100078.236152773
100078.236152934
100078.236153096
100078.236153258
100078.23615342
100078.236153581
100078.23615374
100078.236153897
100078.236154051
100078.236154202
100078.236154349
100078.236154491
100078.236154628
100078.23615476
100078.236154885
100078.236155005
100078.236155118
100078.236155224
100078.236155322
100078.236155413
100078.236155496
100078.236155571
100078.236155637
100078.236155695
100078.236155743
100078.236155781
100078.236155809
100078.236155825
100078.23615583
100078.236155827
100078.233870922
100078.233870939
100078.233870965
100078.233871006
100078.233871056
100078.233871119
100078.23387119
100078.233871271
100078.23387136
100078.233871458
100078.233871564
100078.233871678
100078.233871799
100078.233871928
100078.233872062
100078.233872202
100078.233872347
100078.233872497
100078.23387265
100078.233872806
100078.233872965
100078.233873126
100078.233873287
100078.233873449
100078.23387361
100078.23387377
100078.233873929
100078.233874085
100078.233874238
100078.233874388
100078.233874534
100078.233874675
100078.233874811
100078.233874942
100078.233875067
100078.233875185
100078.233875297
100078.233875401
100078.233875499
100078.233875588
100078.23387567
100078.233875744
100078.233875808
100078.233875864
100078.233875911
100078.233875947
100078.233875974
100078.233875988
100078.233875992
100078.233875987
100078.2315911
100078.231591119
100078.231591147
100078.23159119
100078.231591242
100078.231591306
100078.231591379
100078.23159146
100078.231591551
100078.23159165
100078.231591757
100078.231591872
100078.231591993
100078.231592122
100078.231592257
100078.231592397
100078.231592542
100078.231592692
100078.231592845
100078.231593001
100078.23159316
100078.23159332
100078.231593481
100078.231593642
100078.231593802
100078.231593962
100078.23159412
100078.231594275
100078.231594428
100078.231594577
100078.231594721
100078.231594862
100078.231594997
100078.231595126
100078.23159525
100078.231595367