/*--------------------------------*- C++ -*----------------------------------*\
  =========                 |
  \\      /  F ield         | OpenFOAM: The Open Source CFD Toolbox
   \\    /   O peration     | Website:  https://openfoam.org
    \\  /    A nd           | Version:  10
     \\/     M anipulation  |
\*---------------------------------------------------------------------------*/
FoamFile
{
    format      ascii;
    class       volScalarField;
    location    "3.6";
    object      p_rgh;
}
// * * * * * * * * * * * * * * * * * * * * * * * * * * * * * * * * * * * * * //

dimensions      [1 -1 -2 0 0 0 0];

internalField   nonuniform List<scalar> 
2500
(
78.4222487753723
78.4222593949235
78.4222685981804
78.4222733404022
78.4222754325601
78.422276361016
78.4222767923493
78.4222770119377
78.4222771522182
78.4222772649955
78.4222773722868
78.422277482372
78.4222775983799
78.422277721751
78.4222778526455
78.4222779909906
78.4222781361022
78.4222782877623
78.4222784453596
78.4222786080354
78.4222787751205
78.4222789458727
78.4222791194625
78.4222792950022
78.4222794717934
78.4222796490067
78.4222798257833
78.4222800013958
78.4222801750875
78.4222803461162
78.4222805137979
78.4222806774633
78.4222808364284
78.4222809900384
78.4222811377404
78.4222812788212
78.4222814125242
78.4222815380199
78.422281653824
78.4222817580157
78.4222818463459
78.42228190889
78.4222819229471
78.4222818356502
78.4222815143876
78.4222806818434
78.4222786758473
78.4222739849065
78.4222646820417
78.4222542211792
78.4228445184999
78.4228756457451
78.4228999979532
78.422912707756
78.4229186175216
78.4229212744249
78.4229224430601
78.4229229552147
78.4229232030048
78.4229233526421
78.422923471604
78.4229235852399
78.4229237023246
78.4229238259722
78.422923956954
78.4229240952263
78.4229242403962
78.4229243920563
78.4229245495953
78.4229247122421
78.4229248793272
78.4229250500939
78.4229252236837
78.422925399238
78.422925575971
78.4229257531551
78.4229259299027
78.422926105457
78.4229262791487
78.4229264501191
78.4229266177572
78.422926781408
78.4229269402422
78.4229270937212
78.4229272413359
78.4229273823294
78.4229275158432
78.4229276408296
78.4229277552804
78.4229278550338
78.4229279295541
78.4229279509891
78.4229278497223
78.4229274594836
78.4229263946763
78.4229238446278
78.4229180564289
78.4229053866438
78.4228806358587
78.4228497706936
78.4233735661546
78.4234132586425
78.4234421677829
78.4234570736007
78.4234639645874
78.4234670401638
78.4234683822579
78.4234689622535
78.4234692348837
78.4234693929902
78.4234695145569
78.4234696289641
78.4234697463107
78.4234698700748
78.4234700011002
78.4234701394307
78.4234702846734
78.4234704363625
78.4234705939307
78.4234707566211
78.4234709237207
78.4234710944729
78.4234712680627
78.4234714436316
78.4234716203646
78.423471797505
78.4234719741798
78.423472149705
78.4234723233239
78.4234724942362
78.4234726617869
78.4234728253505
78.4234729840682
78.4234731374308
78.4234732849582
78.4234734258644
78.4234735592181
78.4234736840153
78.4234737981897
78.4234738971427
78.4234739690728
78.4234739822859
78.4234738567466
78.4234734000929
78.423472164679
78.4234691985039
78.4234624211676
78.4234474941622
78.4234179651394
78.4233777847112
78.4237577469466
78.4237925728085
78.4238151196187
78.4238263212756
78.4238312841917
78.4238334212278
78.4238343434408
78.4238347503415
78.4238349570078
78.4238350916567
78.4238352053071
78.4238353171677
78.4238354337576
78.4238355573325
78.4238356883579
78.4238358267175
78.4238359720184
78.4238361237803
78.4238362813485
78.4238364440534
78.4238366111531
78.4238367818762
78.4238369554223
78.423837130933
78.4238373075932
78.4238374846318
78.4238376612484
78.4238378366135
78.4238380100869
78.4238381808536
78.4238383482589
78.4238385116478
78.4238386702491
78.4238388234953
78.423838970848
78.4238391115796
78.4238392449333
78.4238393699343
78.423839485069
78.4238395871798
78.423839668525
78.4238397084991
78.4238396547007
78.4238393790001
78.4238385689823
78.4238365335477
78.4238316507981
78.4238203805289
78.4237972208794
78.4237612677825
78.423994644123
78.4240187123796
78.4240326793661
78.4240393544751
78.4240422018484
78.4240433915402
78.4240439120767
78.4240441583097
78.4240443043818
78.4240444173338
78.4240445234755
78.4240446327894
78.4240447485354
78.4240448718483
78.4240450027864
78.4240451411752
78.4240452865342
78.4240454383107
78.424045595908
78.4240457585984
78.4240459256689
78.4240460963483
78.4240462697926
78.4240464452159
78.4240466217598
78.4240467986529
78.4240469750948
78.4240471503144
78.4240473235841
78.4240474941616
78.4240476613486
78.4240478245047
78.4240479829168
78.4240481359884
78.4240482831374
78.4240484237089
78.424048557019
78.4240486822673
78.4240487983479
78.4240489033546
78.4240489931253
78.4240490567609
78.4240490671509
78.4240489573567
78.4240485535556
78.4240474638209
78.4240446867771
78.4240379589319
78.424023518397
78.4239982057625
78.4241224130965
78.4241363647743
78.4241436658049
78.4241470058914
78.4241483853839
78.4241489484557
78.4241492106376
78.4241493543523
78.424149461207
78.4241495595779
78.4241496603208
78.424149767583
78.4241498825722
78.4241500055796
78.4241501364304
78.4241502747755
78.4241504201491
78.4241505719401
78.4241507295228
78.4241508921987
78.4241510592256
78.4241512297885
78.424151403131
78.4241515784088
78.4241517548071
78.424151931511
78.4241521077638
78.4241522827797
78.424152455802
78.4241526261176
78.4241527930571
78.4241529559367
78.4241531141015
78.4241532669403
78.4241534139001
78.4241535542969
78.4241536875488
78.4241538130154
78.4241539298528
78.4241540369985
78.4241541325027
78.4241542115051
78.4241542625969
78.4241542574309
78.4241541140073
78.4241536513146
78.4241523446544
78.4241489922424
78.424141393989
78.4241264566372
78.4241840372706
78.424191065249
78.4241943885281
78.4241958175553
78.4241963902168
78.4241966192931
78.4241967450362
78.4241968338756
78.4241969187569
78.424197008324
78.4241971053998
78.4241972110758
78.4241973253374
78.4241974480101
78.4241975787299
78.4241977170022
78.4241978623322
78.4241980141087
78.4241981716623
78.4241983342654
78.424198501205
78.4241986716661
78.424198844863
78.4241990199662
78.4241991961608
78.424199372661
78.4241995486664
78.4241997234058
78.4241998961515
78.4242000661616
78.424200232781
78.424200395355
78.4242005532142
78.424200705791
78.4242008524889
78.4242009927257
78.4242011259485
78.4242012515897
78.4242013690819
78.4242014778138
78.4242015770287
78.4242016651115
78.4242017385841
78.424201788861
78.4242017822835
78.4242016535427
78.4242011571041
78.4241997496574
78.4241962737869
78.4241886164382
78.4242110447376
78.4242141806171
78.4242155101965
78.4242160170688
78.4242162122973
78.4242162881128
78.4242163503077
78.4242164125608
78.4242164857715
78.4242165700416
78.4242166645708
78.4242167689663
78.4242168825731
78.4242170048965
78.4242171354126
78.4242172735976
78.4242174188403
78.4242175705585
78.4242177280394
78.4242178905697
78.4242180573929
78.4242182277085
78.4242184007162
78.4242185756157
78.4242187515774
78.4242189278011
78.4242191035009
78.4242192779348
78.4242194503458
78.4242196200212
78.4242197862768
78.424219948487
78.4242201060115
78.4242202582682
78.4242204047041
78.4242205447517
78.4242206779454
78.4242208037322
78.4242209217773
78.4242210317316
78.4242211334931
78.4242212269164
78.4242213122052
78.4242213891412
78.4242214459518
78.424221469948
78.4242213521793
78.4242208864016
78.4242194964609
78.424216019077
78.4242219081352
78.424223151349
78.424223606984
78.424223728216
78.4242237697908
78.424223784139
78.4242238194856
78.4242238695733
78.4242239365849
78.4242240175663
78.4242241102475
78.4242242135806
78.4242243265762
78.4242244485358
78.4242245788482
78.4242247169022
78.4242248620576
78.4242250136886
78.4242251710821
78.424225333496
78.4242255001591
78.4242256702855
78.4242258430895
78.4242260177271
78.4242261933978
78.4242263693159
78.424226544681
78.424226718751
78.4242268907692
78.4242270600516
78.4242272259144
78.4242273877317
78.4242275448778
78.4242276967998
78.4242278429301
78.4242279827595
78.4242281158513
78.4242282417981
78.4242283602798
78.4242284711945
78.424228574775
78.4242286715162
78.4242287630768
78.4242288521928
78.4242289357062
78.4242290206021
78.4242290563561
78.4242289849935
78.4242285179498
78.4242271132825
78.4242259207676
78.4242263472843
78.4242264631757
78.424226446572
78.4242264352215
78.4242264293425
78.4242264545901
78.4242264994537
78.4242265631328
78.4242266420042
78.424226733332
78.4242268357775
78.4242269482347
78.4242270698596
78.4242271999683
78.4242273378768
78.4242274829448
78.4242276344739
78.4242277917365
78.4242279540049
78.4242281204934
78.4242282904161
78.4242284629581
78.4242286373046
78.4242288126552
78.4242289882241
78.4242291631963
78.4242293368588
78.424229508455
78.4242296772863
78.4242298427125
78.4242300040933
78.4242301608174
78.4242303123319
78.424230458113
78.4242305977095
78.4242307306704
78.4242308566609
78.4242309754918
78.4242310871487
78.4242311920243
78.4242312909046
78.4242313858849
78.4242314802541
78.4242315738229
78.4242316785967
78.4242317667959
78.4242318363395
78.4242317314493
78.4242312385759
78.4242272487318
78.4242273601412
78.4242273611017
78.4242273075361
78.4242272837291
78.4242272745323
78.4242272970587
78.4242273400741
78.4242274020216
78.4242274795542
78.4242275699216
78.4242276716977
78.4242277837038
78.4242279050522
78.4242280349717
78.4242281727493
78.4242283176864
78.424228469099
78.4242286262306
78.4242287883244
78.4242289546091
78.4242291242699
78.4242292965355
78.4242294705618
78.4242296455486
78.42422982071
78.4242299952748
78.4242301684717
78.4242303396022
78.4242305079533
78.4242306728847
78.4242308337707
78.4242309900292
78.4242311411072
78.4242312865099
78.4242314258008
78.4242315585725
78.4242316845484
78.4242318035976
78.4242319157493
78.4242320215271
78.4242321217316
78.4242322184873
78.4242323147482
78.424232411111
78.4242325190135
78.4242326192907
78.4242327264947
78.4242327455868
78.424232611942
78.4242275949509
78.4242275996658
78.4242275705765
78.4242275162833
78.4242274945864
78.4242274885037
78.4242275115248
78.4242275544675
78.4242276157311
78.4242276924924
78.4242277822341
78.4242278835445
78.4242279952159
78.4242281163315
78.4242282460909
78.4242283837375
78.4242285285582
78.4242286798399
78.4242288368114
78.424228998716
78.4242291647679
78.4242293341813
78.4242295061122
78.4242296797893
78.4242298543832
78.424230029108
78.4242302032071
78.4242303759092
78.4242305465159
78.4242307143431
78.4242308787361
78.4242310390837
78.4242311948183
78.424231345416
78.4242314903822
78.4242316293094
78.4242317618191
78.4242318876932
78.424232006786
78.4242321192432
78.4242322255304
78.424232326448
78.4242324239458
78.4242325203522
78.4242326163221
78.4242327210086
78.4242328189721
78.4242329268309
78.4242329791741
78.4242329707486
78.424227603522
78.4242275794531
78.4242275487486
78.4242275045399
78.4242274893913
78.4242274886492
78.4242275136639
78.4242275574798
78.4242276187579
78.4242276952718
78.4242277846788
78.4242278857128
78.4242279971659
78.4242281181214
78.4242282477499
78.4242283852946
78.4242285300134
78.4242286811495
78.4242288379464
78.4242289996473
78.4242291654518
78.4242293345596
78.4242295061558
78.42422967944
78.4242298535974
78.4242300278565
78.4242302014463
78.4242303736246
78.4242305436783
78.424230710938
78.4242308747489
78.4242310345289
78.424231189696
78.4242313397699
78.4242314842559
78.4242316227464
78.4242317549215
78.4242318805627
78.4242319995828
78.4242321120983
78.4242322185455
78.4242323196813
78.4242324171646
78.4242325126834
78.4242326067761
78.4242327060783
78.4242327974789
78.4242328949913
78.424232949983
78.4242329774861
78.4242275023425
78.4242274753778
78.4242274509015
78.4242274185672
78.4242274107091
78.424227415846
78.4242274435528
78.424227488882
78.4242275507131
78.4242276272998
78.4242277166632
78.4242278175952
78.424227928961
78.4242280498293
78.424228179385
78.4242283168423
78.4242284614447
78.4242286124645
78.4242287691013
78.4242289305839
78.424229096112
78.4242292648996
78.4242294361175
78.4242296089797
78.4242297826859
78.4242299564503
78.4242301295017
78.4242303011124
78.4242304705695
78.424230637218
78.4242308004177
78.424230959572
78.4242311141425
78.4242312636052
78.4242314075382
78.424231545534
78.424231677287
78.4242318025936
78.4242319213663
78.4242320337362
78.424232140067
78.4242322409991
78.4242323379149
78.4242324319348
78.4242325234227
78.4242326168314
78.424232700927
78.4242327863612
78.4242328355031
78.4242328685796
78.4242273672571
78.424227344527
78.4242273272685
78.4242273058189
78.4242273048876
78.4242273157579
78.424227346477
78.4242273936688
78.4242274564458
78.4242275334545
78.424227623007
78.4242277239973
78.4242278353777
78.4242279562459
78.4242280857579
78.4242282231571
78.4242283676867
78.424228518561
78.4242286750086
78.4242288362584
78.42422900151
78.4242291699484
78.4242293407879
78.424229513199
78.4242296864104
78.4242298596364
78.4242300321202
78.4242302031198
78.4242303719511
78.4242305379594
78.4242307004897
78.4242308589892
78.4242310129048
78.4242311617272
78.424231305049
78.4242314424919
78.4242315737356
78.424231698591
78.4242318169709
78.424231928977
78.4242320349294
78.4242321353231
78.4242322312639
78.4242323233775
78.4242324119259
78.4242324995721
78.4242325768282
78.4242326512176
78.42423269336
78.4242327232932
78.4242272221309
78.4242272046395
78.4242271937837
78.4242271815892
78.4242271868425
78.4242272030824
78.4242272369447
78.4242272862175
78.4242273501877
78.4242274278658
78.4242275177967
78.4242276190053
78.424227730502
78.424227851443
78.4242279809841
78.4242281183542
78.4242282627965
78.4242284135398
78.4242285698128
78.4242287308298
78.4242288957757
78.4242290638504
78.4242292342824
78.4242294062278
78.4242295789154
78.4242297515884
78.4242299234611
78.4242300938349
78.4242302619969
78.4242304273212
78.424230589153
78.424230746954
78.4242309001565
78.4242310483096
78.424231190962
78.4242313277646
78.4242314584262
78.4242315827141
78.4242317005701
78.4242318120378
78.4242319173791
78.4242320169578
78.424232111618
78.4242322016071
78.4242322870559
78.4242323693179
78.4242324404622
78.4242325055238
78.4242325415253
78.4242325667437
78.4242270740215
78.4242270611721
78.4242270555696
78.4242270510586
78.4242270617542
78.4242270828981
78.4242271198891
78.4242271713447
78.4242272366973
78.424227315234
78.4242274057178
78.4242275072756
78.4242276190053
78.4242277400626
78.4242278696765
78.4242280070466
78.4242281514307
78.4242283020576
78.4242284581414
78.424228618911
78.4242287835514
78.4242289512622
78.4242291212431
78.4242292927083
78.4242294648575
78.4242296369339
78.4242298081808
78.4242299778853
78.4242301453633
78.42423030996
78.4242304710642
78.4242306281085
78.4242307805835
78.4242309279944
78.4242310699337
78.4242312060378
78.424231336001
78.424231459634
78.4242315768352
78.4242316876189
78.4242317921453
78.4242318906909
78.4242319838377
78.4242320715857
78.424232153935
78.4242322312784
78.4242322970531
78.4242323544167
78.424232385456
78.4242324064544
78.4242269248789
78.4242269158422
78.4242269144743
78.4242269162642
78.4242269317328
78.4242269573151
78.4242269973474
78.4242270510003
78.4242271178664
78.4242271974072
78.4242272885604
78.4242273905838
78.4242275026045
78.4242276238656
78.4242277535814
78.4242278909951
78.4242280353501
78.4242281858606
78.4242283417698
78.4242285022774
78.4242286665831
78.4242288339155
78.4242290034454
78.4242291744013
78.4242293459829
78.4242295174481
78.4242296880402
78.4242298570462
78.4242300237966
78.4242301876511
78.4242303479841
78.4242305042571
78.4242306559463
78.4242308025714
78.4242309437395
78.4242310790723
78.4242312082933
78.4242313311697
78.424231447585
78.4242315575393
78.4242316611053
78.4242317584431
78.4242318499601
78.4242319354234
78.4242320147023
78.4242320876074
78.4242321486963
78.4242321997881
78.4242322269129
78.424232244477
78.4242267752561
78.4242267693044
78.4242267713562
78.4242267783557
78.4242267979862
78.4242268275266
78.4242268704693
78.4242269263195
78.4242269947863
78.4242270754185
78.4242271673575
78.4242272699194
78.4242273823329
78.4242275038559
78.4242276337172
78.4242277711892
78.4242279155151
78.4242280659237
78.4242282216437
78.4242283818894
78.4242285458749
78.4242287128145
78.4242288818787
78.4242290522961
78.4242292232957
78.4242293941206
78.4242295640288
78.4242297323217
78.4242298983299
78.4242300613987
78.4242302209459
78.424230376404
78.4242305272637
78.4242306730739
78.4242308134126
78.4242309479159
78.4242310762929
78.4242311983398
78.424231313882
78.4242314228759
78.4242315253505
78.424231621364
78.4242317111348
78.4242317943135
78.4242318706674
78.4242319395707
78.4242319965706
78.424232042511
78.4242320665362
78.4242320813937
78.4242266252404
78.4242266217771
78.4242266266665
78.4242266379879
78.4242266612564
78.4242266943766
78.4242267400696
78.424226798059
78.4242268681264
78.4242269499373
78.4242270427349
78.4242271459516
78.4242272588017
78.4242273806303
78.4242275106808
78.42422764824
78.4242277925659
78.4242279428727
78.4242280984181
78.4242282584164
78.4242284220527
78.4242285885703
78.4242287571687
78.4242289270333
78.4242290974362
78.4242292676063
78.4242294368159
78.4242296043667
78.4242297695891
78.4242299318576
78.4242300905607
78.4242302451748
78.424230395176
78.4242305401131
78.4242306795786
78.4242308131943
78.4242309406836
78.4242310618138
78.4242311763956
78.4242312843417
78.4242313856084
78.4242314801959
78.4242315681768
78.4242316491
78.4242317226744
78.424231787998
78.4242318414326
78.4242318831093
78.4242319046607
78.4242319173645
78.4242264749773
78.4242264735949
78.4242264808563
78.4242264958011
78.4242265222711
78.4242265585781
78.4242266068613
78.4242266669171
78.4242267386144
78.4242268216331
78.4242269153619
78.4242270192335
78.4242271325929
78.4242272547563
78.4242273850396
78.4242275227007
78.4242276670266
78.4242278172605
78.4242279726313
78.4242281323677
78.4242282956693
78.4242284617794
78.4242286298686
78.4242287991801
78.4242289689719
78.424229138458
78.4242293069547
78.4242294737342
78.4242296381562
78.4242297995952
78.4242299574544
78.4242301111954
78.4242302602943
78.4242304043291
78.4242305428779
78.4242306755623
78.4242308020912
78.4242309222318
78.4242310357658
78.4242311425769
78.4242312425777
78.4242313356663
78.4242314218427
78.4242315005831
78.4242315715237
78.4242316336167
78.4242316839081
78.4242317220633
78.4242317415919
78.4242317525204
78.4242263244814
78.4242263248889
78.424226334173
78.4242263521883
78.4242263814813
78.4242264206696
78.4242264713685
78.4242265334178
78.4242266067304
78.424226690986
78.4242267856753
78.4242268902599
78.4242270041723
78.424227126714
78.4242272572446
78.4242273950513
78.4242275393917
78.4242276895384
78.4242278447346
78.424228004209
78.4242281671613
78.4242283328203
78.4242285004293
78.4242286691733
78.4242288383248
78.4242290071415
78.4242291748815
78.4242293408897
78.4242295044969
78.4242296650773
78.4242298220488
78.4242299748876
78.4242301230697
78.4242302661587
78.4242304037471
78.4242305354564
78.4242306609813
78.4242307800887
78.4242308925168
78.4242309981346
78.4242310967966
78.4242311883572
78.4242312727147
78.4242313493305
78.4242314177973
78.4242314769945
78.424231524521
78.424231559693
78.4242315775336
78.4242315869778
78.4242261738837
78.4242261758627
78.4242261869367
78.4242262075859
78.4242262393818
78.4242262811749
78.4242263341439
78.4242263980996
78.4242264729837
78.4242265584908
78.4242266541551
78.4242267595109
78.4242268739763
78.42422699694
78.4242271277471
78.4242272656993
78.4242274100834
78.4242275601719
78.4242277151934
78.4242278743914
78.424228037009
78.424228202246
78.4242283693311
78.424228537493
78.4242287060042
78.4242288741079
78.4242290411203
78.4242292063136
78.4242293690913
78.4242295287986
78.4242296848824
78.4242298367753
78.4242299840262
78.4242301261402
78.4242302627244
78.4242303934152
78.4242305178923
78.4242306358792
78.4242307471577
78.424230851524
78.4242309488036
78.4242310388217
78.4242311213748
78.4242311959533
78.4242312620627
78.4242313186405
78.4242313637078
78.4242313963477
78.4242314127332
78.4242314208823
78.4242260232568
78.4242260266765
78.4242260393075
78.4242260622705
78.4242260963219
78.4242261405016
78.4242261955806
78.4242262613552
78.4242263377819
78.4242264245404
78.4242265211942
78.4242266273359
78.4242267423979
78.4242268657981
78.4242269968963
78.4242271350086
78.4242272794363
78.424227429452
78.4242275843135
78.4242277432495
78.4242279055034
78.4242280703038
78.4242282368796
78.4242284044594
78.4242285723158
78.424228739721
78.4242289059475
78.4242290703405
78.4242292322597
78.4242293910938
78.4242295462464
78.4242296972079
78.4242298434692
78.4242299845937
78.4242301201593
78.4242302498023
78.424230373188
78.4242304900399
78.4242306001106
78.4242307031818
78.4242307990498
78.4242308874964
78.4242309682741
78.4242310408736
78.4242311048001
78.4242311589915
78.4242312018323
78.4242312322749
78.4242312473943
78.4242312543793
78.4242258727463
78.4242258774757
78.4242258915619
78.4242259165912
78.42422595268
78.4242259990424
78.424226056115
78.4242261236359
78.4242262015614
78.4242262895423
78.4242263872002
78.4242264941422
78.4242266098299
78.4242267336813
78.4242268650705
78.4242270033574
78.4242271478433
78.4242272978008
78.4242274524877
78.4242276111763
78.4242277730664
78.4242279374303
78.4242281034822
78.4242282704799
78.4242284376814
78.4242286043591
78.4242287698144
78.4242289333924
78.424229094453
78.424229252385
78.4242294066062
78.4242295565928
78.4242297018791
78.4242298419704
78.4242299764883
78.4242301050544
78.4242302273196
78.4242303429928
78.4242304518266
78.4242305535736
78.424230648001
78.4242307348904
78.424230813951
78.4242308846442
78.4242309464898
78.4242309984838
78.4242310393311
78.4242310678092
78.424231081779
78.4242310877016
78.424225722425
78.4242257284059
78.4242257438309
78.4242257707374
78.4242258087033
78.4242258571176
78.4242259160674
78.4242259852472
78.4242260646133
78.424226153802
78.4242262524785
78.4242263602064
78.4242264765198
78.4242266008223
78.4242267325462
78.4242268710223
78.4242270155664
78.4242271654657
78.424227320007
78.4242274784192
78.42422763996
78.4242278038873
78.4242279694154
78.4242281358165
78.4242283023486
78.4242284682987
78.4242286329827
78.4242287957459
78.4242289559188
78.4242291129485
78.4242292662238
78.42422941525
78.4242295595177
78.4242296985758
78.4242298320314
78.4242299594771
78.4242300805927
78.4242301950871
78.4242303026549
78.4242304030777
78.4242304960644
78.4242305813968
78.4242306587257
78.4242307275854
78.4242307874665
78.4242308373941
78.4242308764224
78.4242309031397
78.4242309160472
78.4242309209367
78.424225572453
78.4242255796562
78.4242255963618
78.4242256250291
78.4242256647412
78.4242257150618
78.4242257757869
78.4242258465674
78.4242259273451
78.4242260177271
78.4242261173786
78.4242262259213
78.4242263428605
78.4242264676432
78.4242265996872
78.424226738367
78.4242268829694
78.424227032825
78.4242271872063
78.4242273453565
78.424227506548
78.4242276700243
78.4242278350284
78.424228000833
78.4242281666957
78.4242283319327
78.4242284958309
78.4242286577501
78.4242288170644
78.4242289731628
78.4242291255068
78.4242292735289
78.424229416778
78.4242295548029
78.4242296871525
78.4242298134923
78.4242299334437
78.4242300467013
78.4242301529885
78.4242302520433
78.4242303435894
78.4242304273794
78.4242305030348
78.4242305701337
78.424230628123
78.4242306761444
78.4242307134555
78.424230738543
78.4242307504173
78.4242307543173
78.424225422903
78.4242254312994
78.424225449271
78.4242254795972
78.4242255209683
78.4242255730933
78.4242256355355
78.424225707844
78.4242257900041
78.4242258815357
78.4242259821767
78.4242260915198
78.4242262090847
78.4242263343476
78.4242264667264
78.4242266055953
78.424226750285
78.4242269000824
78.4242270543036
78.4242272122065
78.4242273730488
78.4242275360739
78.4242277005542
78.4242278657621
78.42422803097
78.4242281954648
78.4242283585918
78.4242285196815
78.4242286781082
78.4242288332898
78.4242289846734
78.4242291317205
78.4242292739364
78.424229410899
78.4242295421573
78.4242296673474
78.4242297861201
78.4242298981553
78.4242300031619
78.4242301008489
78.4242301909544
78.4242302732018
78.4242303472129
78.4242304125946
78.4242304688087
78.4242305149965
78.4242305507214
78.4242305742373
78.4242305851221
78.424230588018
78.4242252739641
78.4242252835975
78.424225302806
78.4242253347766
78.4242253777193
78.4242254315905
78.424225495648
78.4242255694262
78.4242256529105
78.4242257455917
78.4242258471932
78.4242259573075
78.4242260755127
78.4242262012558
78.4242263339693
78.4242264730419
78.4242266178044
78.4242267675727
78.4242269216338
78.4242270792893
78.4242272397678
78.4242274023563
78.4242275663273
78.4242277309386
78.4242278954771
78.4242280592589
78.4242282216001
78.4242283818603
78.4242285394139
78.4242286936787
78.4242288440873
78.4242289901449
78.4242291313421
78.4242292672279
78.4242293973948
78.4242295214499
78.4242296390294
78.4242297498276
78.4242298535246
78.4242299498583
78.4242300385231
78.4242301192571
78.4242301916674
78.4242302553903
78.4242303098727
78.4242303542997
78.4242303884967
78.4242304104991
78.4242304203653
78.4242304222425
78.4242251257383
78.4242251366231
78.4242251570686
78.4242251906981
78.4242252351542
78.4242252907425
78.4242253563571
78.4242254315759
78.4242255163554
78.4242256101279
78.4242257126753
78.4242258235899
78.4242259424063
78.4242260686297
78.4242262016778
78.4242263409542
78.4242264857894
78.4242266355141
78.4242267894442
78.4242269468232
78.424227106967
78.424227269119
78.4242274325661
78.4242275965807
78.4242277604644
78.4242279235041
78.424228085074
78.4242282445048
78.4242284011852
78.4242285545333
78.4242287039961
78.4242288490495
78.4242289892281
78.4242291240516
78.4242292531126
78.424229376018
78.4242294924043
78.4242296019656
78.424229704382
78.4242297993478
78.4242298865865
78.4242299658363
78.4242300366604
78.424230098768
78.4242301515769
78.4242301942868
78.4242302270286
78.4242302474886
78.4242302563507
78.4242302571511
78.4242249783856
78.4242249905801
78.4242250123207
78.4242250476382
78.4242250935786
78.4242251508404
78.4242252179683
78.4242252945842
78.4242253806151
78.4242254754936
78.4242255789577
78.4242256906291
78.4242258100712
78.4242259367602
78.424226070143
78.4242262096232
78.4242263545311
78.4242265042267
78.4242266579968
78.4242268151429
78.4242269749375
78.4242271366529
78.4242272995907
78.4242274630087
78.4242276262376
78.4242277885787
78.4242279493628
78.4242281079787
78.4242282637861
78.4242284162319
78.4242285647342
78.4242287088273
78.4242288479727
78.4242289817339
78.4242291096889
78.4242292314593
78.4242293466668
78.4242294549767
78.424229556098
78.424229649725
78.4242297355668
78.4242298133468
78.4242298826139
78.4242299431207
78.4242299943144
78.4242300353508
78.4242300666519
78.4242300855694
78.4242300933402
78.42423009302
78.424224832037
78.4242248456139
78.4242248687078
78.4242249057861
78.4242249532108
78.4242250121315
78.4242250807438
78.4242251587129
78.4242252459808
78.4242253418925
78.4242254462733
78.4242255587014
78.4242256787547
78.4242258059094
78.4242259396124
78.4242260792817
78.4242262242769
78.4242263739434
78.424226527568
78.4242266844667
78.424226843912
78.4242270052055
78.4242271676485
78.424227330499
78.424227493073
78.4242276547011
78.4242278147285
78.4242279725295
78.4242281274783
78.4242282790219
78.4242284265929
78.4242285696819
78.4242287078087
78.4242288405221
78.4242289673857
78.4242290880065
78.4242292020353
78.4242293091374
78.4242294089781
78.4242295012664
78.4242295857111
78.4242296620505
78.4242297297897
78.4242297887395
78.4242298383469
78.4242298777244
78.4242299075995
78.4242299249017
78.4242299315229
78.4242299299949
78.4242246869253
78.4242247020011
78.4242247265502
78.4242247654911
78.424224814371
78.4242248749651
78.4242249450035
78.4242250243115
78.4242251127725
78.4242252097174
78.4242253149714
78.4242254281417
78.424225548777
78.4242256763973
78.424225810435
78.4242259502935
78.4242260953761
78.4242262449989
78.4242263984779
78.4242265551438
78.424226714269
78.4242268751404
78.4242270370596
78.424227199328
78.4242273612763
78.4242275222059
78.4242276814766
78.4242278384772
78.4242279925966
78.424228143238
78.4242282898922
78.4242284320062
78.4242285691435
78.4242287007946
78.4242288265814
78.4242289460817
78.4242290589464
78.4242291648115
78.4242292633862
78.4242293543648
78.4242294374417
78.4242295123549
78.4242295785953
78.4242296360171
78.4242296840675
78.4242297217861
78.4242297502497
78.4242297658493
78.424229771219
78.4242297683668
78.424224543196
78.4242245599016
78.4242245860514
78.4242246269569
78.4242246773356
78.4242247396032
78.424224811024
78.4242248916416
78.4242249812814
78.4242250792158
78.4242251853429
78.4242252992262
78.4242254204437
78.4242255485005
78.4242256828584
78.4242258229206
78.4242259680759
78.4242261176551
78.4242262710031
78.4242264274217
78.4242265862122
78.4242267466907
78.4242269081151
78.4242270698305
78.4242272311385
78.4242273913842
78.4242275499273
78.4242277061276
78.4242278594174
78.4242280091858
78.4242281549232
78.4242282961059
78.424228432239
78.4242285628716
78.4242286875815
78.4242288059759
78.4242289176764
78.4242290223483
78.4242291196715
78.424229209355
78.4242292910785
78.4242293645948
78.4242294293654
78.4242294852738
78.4242295318254
78.4242295678559
78.424229594908
78.4242296086741
78.4242296126758
78.4242296083685
78.4242244011548
78.4242244196503
78.4242244475899
78.4242244905909
78.424224542483
78.4242246064387
78.4242246792273
78.4242247611255
78.4242248518858
78.4242249507952
78.4242250577518
78.4242251723481
78.4242252941331
78.4242254226265
78.4242255572899
78.4242256975413
78.4242258427694
78.4242259923194
78.424226145522
78.4242263017077
78.424226460178
78.4242266202345
78.4242267811787
78.4242269423557
78.4242271030525
78.4242272626288
78.4242274204444
78.4242275758879
78.4242277283483
78.4242278772726
78.4242280221224
78.4242281623592
78.424228297532
78.4242284271459
78.424228550808
78.424228668111
78.4242287786765