/*--------------------------------*- C++ -*----------------------------------*\
  =========                 |
  \\      /  F ield         | OpenFOAM: The Open Source CFD Toolbox
   \\    /   O peration     | Website:  https://openfoam.org
    \\  /    A nd           | Version:  10
     \\/     M anipulation  |
\*---------------------------------------------------------------------------*/
FoamFile
{
    format      ascii;
    class       surfaceScalarField;
    location    "3.6";
    object      phi;
}
// * * * * * * * * * * * * * * * * * * * * * * * * * * * * * * * * * * * * * //

dimensions      [1 0 -1 0 0 0 0];

internalField   nonuniform List<scalar> 
4900
(
-6.42432287451595e-12
6.67763850883371e-12
-7.49605857764101e-12
1.4518321142413e-12
-5.67450637717588e-12
-1.41170984827095e-12
-3.75814238043036e-12
-1.50673269542928e-12
-2.42322463041872e-12
-9.30821645442821e-13
-1.61153231417025e-12
-4.12391149202954e-13
-1.1253350333582e-12
-9.04938063175569e-14
-8.2899198757577e-13
9.67137471704183e-14
-6.384732946435e-13
2.00760364931545e-13
-5.08120218301349e-13
2.59997020969157e-13
-4.13564796139235e-13
2.95615320117757e-13
-3.41431324262253e-13
3.18462517184244e-13
-2.8425451232042e-13
3.3425966926847e-13
-2.37581595935955e-13
3.45864261412901e-13
-1.98643552653778e-13
3.54811932109064e-13
-1.65601124707837e-13
3.61946741699572e-13
-1.37171532391265e-13
3.67746964888813e-13
-1.1241369443881e-13
3.72530280047755e-13
-9.06033094322625e-14
3.76481281069491e-13
-7.1172539969668e-14
3.79763234098474e-13
-5.36501197584011e-14
3.82461623933956e-13
-3.76317905473364e-14
3.84661611645235e-13
-2.2764894996989e-14
3.86412512634491e-13
-8.73335769573659e-15
3.8777163140906e-13
4.76456901045184e-15
3.88755720095643e-13
1.80448930314051e-14
3.89370876894707e-13
3.14015984378609e-14
3.89643424621088e-13
4.51578071580028e-14
3.89564169963403e-13
5.96633006458874e-14
3.89111022175002e-13
7.52928925347665e-14
3.88276549873945e-13
9.24937892852232e-14
3.86992714621759e-13
1.11788398157243e-13
3.8520004031012e-13
1.33786400786128e-13
3.8281538989425e-13
1.59255936958439e-13
3.79696275108777e-13
1.8923219968249e-13
3.75585151723982e-13
2.25078167428608e-13
3.70179600501589e-13
2.68720467534052e-13
3.62944416773536e-13
3.23027035363658e-13
3.52990806005394e-13
3.92519893837769e-13
3.38726608860116e-13
4.84825814196445e-13
3.17129366541871e-13
6.1349781853504e-13
2.82346989437539e-13
8.03130728707427e-13
2.2340767767835e-13
1.09963468256274e-12
1.19065827968985e-13
1.58804038225007e-12
-6.96010510167797e-14
2.40516201501013e-12
-3.93841211580935e-13
3.75589478422042e-12
-9.20728097756918e-13
5.71636494573668e-12
-1.52084052618471e-12
7.62037307783112e-12
-1.45271801739898e-12
6.55571581488691e-12
1.50869673804958e-12
6.85601702222938e-12
-7.25882758289434e-12
1.42807451778339e-11
-1.16151752230675e-11
6.28241756434283e-12
-9.71535585471734e-12
-2.81584658177467e-12
-6.99510698423855e-12
-3.73611996055125e-12
-4.87530203954598e-12
-2.56900179819058e-12
-3.47171617180747e-12
-1.34178610029405e-12
-2.56565063818068e-12
-5.27483145345739e-13
-1.96386544183098e-12
-3.9350883845102e-14
-1.5424697978808e-12
2.43074530298454e-13
-1.2307387320121e-12
4.11074784794832e-13
-9.89162301086351e-13
5.16838989910626e-13
-7.9517416817375e-13
5.87949818799121e-13
-6.35233441425833e-13
6.38924740646389e-13
-5.0074751782666e-13
6.77391644692515e-13
-3.85999218534533e-13
7.07594334372548e-13
-2.86965082734029e-13
7.31975002060161e-13
-2.00707327550085e-13
7.5201130862587e-13
-1.2497562699326e-13
7.68680609938687e-13
-5.80019531994273e-14
7.82615741992008e-13
1.67438706044223e-15
7.94294711628872e-13
5.5287506576542e-14
8.04019258265032e-13
1.03927743392477e-13
8.12039074418922e-13
1.48557873621937e-13
8.1852966599302e-13
1.90088906295932e-13
8.23625810957865e-13
2.29377531912402e-13
8.27401561712328e-13
2.67305383093502e-13
8.29862700999971e-13
3.04734130606001e-13
8.31062756615842e-13
3.42581885111842e-13
8.30958279500331e-13
3.81810982496471e-13
8.29490459289439e-13
4.23474591004991e-13
8.2658138887549e-13
4.68764839795201e-13
8.22030749161505e-13
5.19048359388299e-13
8.15622109771232e-13
5.75903939201882e-13
8.07067678353102e-13
6.41262893945059e-13
7.95890462783906e-13
7.17564316732931e-13
7.81339797534149e-13
8.079562384322e-13
7.62436302555206e-13
9.16655636051091e-13
7.37615977809752e-13
1.04959394111756e-12
7.04341984691362e-13
1.21556323045622e-12
6.58242390786779e-13
1.42840607637944e-12
5.91346163329432e-13
1.71108920769182e-12
4.88772075664956e-13
2.10369482797096e-12
3.22532443158336e-13
2.67781693465204e-12
4.00164366540051e-14
3.55896262484394e-12
-4.51202229900574e-13
4.94365002046671e-12
-1.27239701487792e-12
7.06374139532169e-12
-2.52434105393853e-12
9.84109632552362e-12
-3.76696018461304e-12
1.18698261582782e-11
-2.93698225052206e-12
7.5077733715454e-12
6.38794958433118e-12
1.46876925625265e-11
-4.13016798507913e-12
1.87567630985182e-11
-9.21211356686123e-12
1.18118956982e-11
-8.76092665166186e-12
-2.81785155401464e-12
-7.04751993102128e-12
-5.01184816502837e-12
-5.41731327133936e-12
-3.77408744750064e-12
-4.17298871286132e-12
-2.17027488329049e-12
-3.27290806768578e-12
-1.0175728817316e-12
-2.61424230242483e-12
-2.91430480738933e-13
-2.11681627359611e-12
1.50452007714154e-13
-1.72829791308905e-12
4.2672032135102e-13
-1.41577318608757e-12
6.08664319416688e-13
-1.15846306746656e-12
7.35773307052906e-13
-9.42649939934979e-13
8.29414555138406e-13
-7.58959317029332e-13
9.01401081469476e-13
-6.00764682850284e-13
9.58580048942051e-13
-4.6318310771561e-13
1.00505438256941e-12
-3.42540121409261e-13
1.04343385567206e-12
-2.35936860014137e-13
1.07544857346826e-12
-1.41057756706623e-13
1.10228386747732e-12
-5.59492895059872e-14
1.12478733009479e-12
2.10452276682742e-14
1.14354844724649e-12
9.14094253953686e-14
1.15900867314311e-12
1.56466211908599e-13
1.1715058217178e-12
2.17476266427866e-13
1.18125831496735e-12
2.75635403069906e-13
1.18841118861741e-12
3.32136960473839e-13
1.19299452698284e-12
3.88179770706785e-13
1.19506343512958e-12
4.45013659094234e-13
1.19454578124226e-12
5.03948709833731e-13
1.19132878868705e-12
5.66423997463204e-13
1.18522560862688e-12
6.34036157427389e-13
1.17588457531013e-12
7.08599570724187e-13
1.16288839293518e-12
7.9220710858567e-13
1.14567751351155e-12
8.87375120730924e-13
1.12336933919851e-12
9.9718393385947e-13
1.0946634239265e-12
1.12554285404499e-12
1.05778257600507e-12
1.27752844044664e-12
1.0100338541758e-12
1.45996588192053e-12
9.47196024751561e-13
1.682408003336e-12
8.62248064223068e-13
1.95879382271689e-12
7.42932481480381e-13
2.31017361373032e-12
5.67357974506776e-13
2.76987233707233e-12
2.95391798624448e-13
3.39099598266342e-12
-1.45126447063913e-13
4.25517557565986e-12
-8.74550576810847e-13
5.46964199617479e-12
-2.03840672016588e-12
7.0906180487157e-12
-3.68424595423051e-12
8.85500000919937e-12
-5.05154262314061e-12
9.44628275185648e-12
-3.03301002271697e-12
4.37444348346249e-12
1.1926446611085e-11
1.93440233144691e-11
-2.90299353041742e-12
2.19777758176948e-11
-5.86994918207147e-12
1.51690095069685e-11
-6.4382415999875e-12
-1.87239886551399e-12
-5.89680078185278e-12
-5.1915450890731e-12
-5.02803523462335e-12
-4.29492817522492e-12
-4.17257002497202e-12
-2.6875552726932e-12
-3.44844847189127e-12
-1.40932723175448e-12
-2.85965670210488e-12
-5.50962925987531e-13
-2.38365417753784e-12
2.28621496034475e-15
-1.99582434429414e-12
3.66385267113986e-13
-1.6757161891556e-12
6.16428973847877e-13
-1.4079153580045e-12
7.96721783027832e-13
-1.18094439838019e-12
9.32380750644661e-13
-9.86317490585347e-13
1.03807968750849e-12
-8.17689440066161e-13
1.12268397605438e-12
-6.70220447125325e-13
1.19173233692123e-12
-5.40164267786481e-13
1.24886319424237e-12
-4.24516294980937e-13
1.29652779237451e-12
-3.20837259869556e-13
1.33645007358394e-12
-2.27055450500923e-13
1.36985203250986e-12
-1.41404396991741e-13
1.39762098158355e-12
-6.22954819588124e-14
1.42039375599458e-12
1.16976741571938e-14
1.43867097051449e-12
8.19269509012796e-14
1.45276718297848e-12
1.49685742715657e-13
1.46289029454306e-12
2.1623915243798e-13
1.46912066154142e-12
2.82876603507429e-13
1.47149538431384e-12
3.50926047715965e-13
1.46992457885027e-12
4.21788722449794e-13
1.46422886459073e-12
4.97003741306159e-13
1.45410129206945e-12
5.78252262777238e-13
1.43905520431545e-12
6.67446843652001e-13
1.41845714428833e-12
7.66791071917921e-13
1.39146334081708e-12
8.78906754183331e-13
1.35678918393075e-12
1.00694718095924e-12
1.31261580246821e-12
1.15484028779444e-12
1.25641966257776e-12
1.32758216847352e-12
1.18447441004731e-12
1.53163730781838e-12
1.09114886033516e-12
1.77557864187298e-12
9.67383330578795e-13
2.0709427841537e-12
7.98049462890366e-13
2.43314392625904e-12
5.57477119007257e-13
2.88260709900371e-12
2.00659044229511e-13
3.44406715836836e-12
-3.48615507702819e-13
4.1405585121352e-12
-1.20834902036641e-12
4.97202353579239e-12
-2.499504555009e-12
5.83414536188223e-12
-4.16283436400877e-12
6.4217221380292e-12
-5.23527774937322e-12
5.98056958727355e-12
-2.17081639643743e-12
3.03759613309705e-12
1.5264981039817e-11
2.26140746148217e-11
-2.33286754205274e-12
2.4574823691956e-11
-3.65099940009355e-12
1.67914309709846e-11
-4.64921821181863e-12
-5.92750595763232e-13
-4.78459790776454e-12
-4.78994725401703e-12
-4.43481970065084e-12
-4.39084672370932e-12
-3.89482808236319e-12
-2.98232319772869e-12
-3.34860106281658e-12
-1.71533056953686e-12
-2.85837624627801e-12
-8.03424376477244e-13
-2.43823863550583e-12
-1.81014158364888e-13
-2.08357907310991e-12
2.48564936613762e-13
-1.78436987979448e-12
5.54643627059966e-13
-1.53050527419418e-12
7.81256262137178e-13
-1.31328847706827e-12
9.54774505408502e-13
-1.12571795820626e-12
1.09146523944548e-12
-9.62268643759376e-13
1.2015695931927e-12
-8.18574457865663e-13
1.29173040726946e-12
-6.91159460435529e-13
1.36641849968291e-12
-5.77194671155697e-13
1.42871809757884e-12
-4.74343040967964e-13
1.48081920637429e-12
-3.80608363492896e-13
1.52429250410577e-12
-2.94272841495682e-13
1.56029594676706e-12
-2.13797300505455e-13
1.58966261294923e-12
-1.37785859239412e-13
1.61303625791913e-12
-6.49216637860044e-14
1.63083137015231e-12
6.05734997388806e-15
1.64331493281245e-12
7.63861638545491e-14
1.65061430154641e-12
1.47316843750249e-13
1.65275679730678e-12
2.20143111616536e-13
1.64962928818771e-12
2.9622808971557e-13
1.64098993246016e-12
3.77062149899588e-13
1.62642202745246e-12
4.64270583552077e-13
1.60530959015439e-12
5.59697858357589e-13
1.57681488689917e-12
6.6545867829424e-13
1.53983009599642e-12
7.84037695188578e-13
1.4927155978189e-12
9.18386753107112e-13
1.43319627679384e-12
1.07211282158825e-12
1.35811901128982e-12
1.24969081287745e-12
1.26291851610843e-12
1.45670457213599e-12
1.14090464702131e-12
1.70015409208128e-12
9.81661285105403e-13
1.98866813693379e-12
7.68509383244384e-13
2.33212339428526e-12
4.74616152858662e-13
2.74012143187855e-12
5.53712631185993e-14
3.21664813028273e-12
-5.59588013484379e-13
3.74683986071925e-12
-1.46882657420839e-12
4.27109697013013e-12
-2.74720253277932e-12
4.61791144459253e-12
-4.22099784468188e-12
4.52701026882959e-12
-4.83640040202285e-12
3.63547726474236e-12
-9.54931709155346e-13
2.35851382320865e-12
1.68453971870172e-11
2.51428149736689e-11
-1.73366186897081e-12
2.65046515022485e-11
-2.54686170811053e-12
1.78107849234835e-11
-3.63300899424162e-12
6.73987545504796e-13
-4.01039701177193e-12
-4.24436284113856e-12
-3.91154563346345e-12
-4.33099343317972e-12
-3.56609370021506e-12
-3.17578105101507e-12
-3.15351636694902e-12
-1.97971542633395e-12
-2.75144041098303e-12
-1.05899510837469e-12
-2.38951652599206e-12
-3.96846913429877e-13
-2.07418023415999e-12
7.96504023242158e-14
-1.80246062893394e-12
4.30122223177437e-13
-1.56850922975468e-12
6.95570704593864e-13
-1.36622387601693e-12
9.01992859738678e-13
-1.19016202390502e-12
1.06623851004147e-12
-1.03576901533253e-12
1.19935459410064e-12
-8.99287887570881e-13
1.30873915422089e-12
-7.77643315209053e-13
1.39949547593361e-12
-6.68267102527695e-13
1.4752029617482e-12
-5.69007280638992e-13
1.53844509919723e-12
-4.78009332150991e-13
1.59109835160128e-12
-3.93657785760447e-13
1.63455193077353e-12
-3.14505260433078e-13
1.66982373915543e-12
-2.39220494516915e-13
1.69767359824271e-12
-1.66554559037613e-13
1.71861789900661e-12
-9.53132312883715e-14
1.73298240851279e-12
-2.43186703544871e-14
1.74093077452099e-12
4.76125585863205e-14
1.74249032493259e-12
1.21710577408164e-13
1.73751958497769e-12
1.9927032517237e-13
1.72571867735864e-12
2.81695494783966e-13
1.70657806682964e-12
3.70520945074677e-13
1.67935682168974e-12
4.67464430209649e-13
1.6430479264028e-12
5.74492338291415e-13
1.59630031867369e-12
6.93884609245747e-13
1.53717524453879e-12
8.28302233080312e-13
1.46302557313767e-12
9.80923358890813e-13
1.37020259023273e-12
1.15557110226759e-12
1.25352004148744e-12
1.35682389355853e-12
1.10557268894918e-12
1.59005359962614e-12
9.15197484734581e-13
1.8612216411822e-12
6.65187746129116e-13
2.17580880815177e-12
3.29258315181571e-13
2.53611205794444e-12
-1.339230041769e-13
2.9346000632832e-12
-7.84709939025739e-13
3.34003967477761e-12
-1.69750338440403e-12
3.67652910957835e-12
-2.90134762219569e-12
3.77603240142754e-12
-4.1280288789756e-12
3.4438763088112e-12
-4.29501276962933e-12
2.44974730460004e-12
2.63013015385154e-13
1.69733285643628e-12
1.78045791683633e-11
2.6949464220628e-11
-1.15069591233167e-12
2.7772041491604e-11
-2.04612006257208e-12
1.88045497431748e-11
-3.06638057852691e-12
1.76907280130714e-12
-3.47760116936826e-12
-3.76535048209931e-12
-3.48254526715465e-12
-4.26357524152862e-12
-3.25403171378199e-12
-3.34595962556146e-12
-2.9386270333176e-12
-2.2391064832004e-12
-2.60909808991605e-12
-1.33333451830863e-12
-2.29908295287894e-12
-6.51565721532068e-13
-2.02056367631449e-12
-1.42926800529611e-13
-1.77524573001018e-12
2.41703415806812e-13
-1.56061245747368e-12
5.38993683698173e-13
-1.37281629550938e-12
7.73520679760539e-13
-1.20788807020308e-12
9.61958551553003e-13
-1.06223964975783e-12
1.11567068448964e-12
-9.32741442844396e-13
1.24248120119496e-12
-8.16738178992424e-13
1.3479257608425e-12
-7.11948462767413e-13
1.435949351007e-12
-6.16424090088362e-13
1.50944777617343e-12
-5.28457418790742e-13
1.57054599327226e-12
-4.46541678385104e-13
1.62082695125411e-12
-3.6932218552491e-13
1.66147667767242e-12
-2.95543226012194e-13
1.69335421104746e-12
-2.24024183793812e-13
1.71706960062183e-12
-1.53630827898704e-13
1.73299856275023e-12
-8.3245843688378e-14
1.74134099915099e-12
-1.17451401701e-14
1.74212257238844e-12
6.2034603358013e-14
1.73518077577376e-12
1.39321422031629e-13
1.72015722411858e-12
2.21435039128835e-13
1.69646558707288e-12
3.09815912233627e-13
1.66325055060189e-12
4.06058116444674e-13
1.61936441219006e-12
5.11968788467042e-13
1.56324813918134e-12
6.29608123954802e-13
1.49272281358941e-12
7.61334739147626e-13
1.40485046822781e-12
9.09889835244716e-13
1.2956181566775e-12
1.07844106278368e-12
1.15943046210938e-12
1.2705774551549e-12
9.88491916105917e-13
1.49016657010695e-12
7.71393370301137e-13
1.74086335207355e-12
4.91183011899e-13
2.02476829282509e-12
1.23172710389448e-13
2.33942433860085e-12
-3.69352285257546e-13
2.67161907494545e-12
-1.03587913916281e-12
2.98599948547627e-12
-1.92835617941807e-12
3.2111656520081e-12
-3.03892416288698e-12
3.21101084778813e-12
-4.03265797233781e-12
2.8461001665852e-12
-3.82173237927699e-12
1.91122991618784e-12
1.31722267314375e-12
1.08989367906325e-12
1.8732193771173e-11
2.80854560705716e-11
-7.29109315754849e-13
2.85387441612752e-11
-1.76641855796686e-12
1.98386448947801e-11
-2.66895527593146e-12
2.65138851786248e-12
-3.05837639298378e-12
-3.39714409739062e-12
-3.11263001506547e-12
-4.23157606400386e-12
-2.96343588707394e-12
-3.5189371081858e-12
-2.72279975314671e-12
-2.50439019822168e-12
-2.45367919923465e-12
-1.62712475474623e-12
-2.18912083440098e-12
-9.4023203273017e-13
-1.94386637674565e-12
-4.11378763051829e-13
-1.72280670324222e-12
-1.44651018462712e-15
-1.52604013832467e-12
3.21370251165155e-13
-1.3516350097087e-12
5.7955465144783e-13
-1.19695923804902e-12
7.89045600966628e-13
-1.05932273153265e-12
9.61096018038362e-13
-9.36210955924077e-13
1.10368249337263e-12
-8.25378809426869e-13
1.22257387409317e-12
-7.24835189451896e-13
1.32196234666605e-12
-6.32832783263425e-13
1.40496930437414e-12
-5.47813163406645e-13
1.4739166067845e-12
-4.68386115776884e-13
1.53054825151708e-12
-3.93278655974604e-13
1.57618315795614e-12
-3.21312146411956e-13
1.61177425229275e-12
-2.51365373211749e-13
1.63800758164494e-12
-1.82363872941933e-13
1.6553089291809e-12
-1.13246461073577e-13
1.66390993734321e-12
-4.29426404772532e-14
1.66383208936601e-12
2.9652151478457e-14
1.65489628283825e-12
1.05701756059177e-13
1.63669012797975e-12
1.86446961489469e-13
1.6085664211122e-12
2.73233477652394e-13
1.56956933832096e-12
3.6753726405827e-13
1.5184342906056e-12
4.71009866313527e-13
1.45343141987865e-12
5.85496027746519e-13
1.37220020575324e-12
7.13061023131619e-13
1.2715887447132e-12
8.56016135412456e-13
1.14735285156157e-12
1.01690309139879e-12
9.93679007824934e-13
1.19839443547187e-12
8.0266206911775e-13
1.40301919522763e-12
5.63055315765447e-13
1.63249442429667e-12
2.58741594846889e-13
1.88631101583439e-12
-1.32723257150961e-13
2.15886857183327e-12
-6.42938647197013e-13
2.43429787737514e-12
-1.3110772447404e-12
2.67816808149261e-12
-2.17035787596892e-12
2.8288402120278e-12
-3.18514286930067e-12
2.78371411335264e-12
-3.97800554701933e-12
2.44021307253798e-12
-3.45954131665784e-12
1.61971006379884e-12
2.16386811153725e-12
6.60863519542686e-13
1.97068528605866e-11
2.87384306921224e-11
-4.86641166498007e-13
2.89875425774502e-11
-1.5452288353671e-12
2.080122445188e-11
-2.32582313494343e-12
3.32743850282885e-12
-2.69195652030442e-12
-3.13007301570167e-12
-2.77857070573529e-12
-4.24078534020574e-12
-2.68951712185708e-12
-3.70281072496382e-12
-2.50923448715419e-12
-2.77897775295971e-12
-2.29145503495926e-12
-1.93850075885828e-12
-2.06711301964228e-12
-1.25721314317623e-12
-1.85222100668467e-12
-7.17776795682411e-13
-1.65381824252411e-12
-2.90123348629216e-13
-1.4740111586655e-12
5.25870351958724e-14
-1.31245264779953e-12
3.30341403932687e-13
-1.16768282410166e-12
5.57945165564383e-13
-1.03782834083479e-12
7.46197243939333e-13
-9.20953054551978e-13
9.02994142078059e-13
-8.1521046485828e-13
1.03416276741098e-12
-7.18894144784782e-13
1.14403192080925e-12
-6.30459336843611e-13
1.2358670898786e-12
-5.48496645002838e-13
1.31213387628584e-12
-4.71730693672773e-13
1.37470349884255e-12
-3.9897433387198e-13
1.4249981762339e-12
-3.29125530540747e-13
1.46405552049391e-12
-2.61123867495108e-13
1.49262104889415e-12
-1.9395548303361e-13
1.51117040257519e-12
-1.26609184484064e-13
1.51995547794633e-12
-5.80715244069837e-14
1.51900081842646e-12
1.27063494851319e-14
1.50810858515e-12
8.68199176085177e-14
1.48682568237082e-12
1.65436937178454e-13
1.45444670096164e-12
2.49807508676668e-13
1.40993890225881e-12
3.4129135469649e-13
1.35194056480677e-12
4.41383224403745e-13
1.27859184672225e-12
5.51717327064252e-13
1.18740296707537e-12
6.74068207957982e-13
1.07508763439943e-12
8.10342879339196e-13
9.37280531649014e-13
9.6250248710482e-13
7.68121899895868e-13
1.13239579484422e-12
5.59831109672108e-13
1.32138572595075e-12
3.01653580886748e-13
1.52960460901529e-12
-2.12937647877477e-14
1.75457785433313e-12
-4.28855246429348e-13
1.98866195360877e-12
-9.47474366113325e-13
2.2149329325596e-12
-1.60705875002424e-12
2.40155217693884e-12
-2.42587260809237e-12
2.49611383872685e-12
-3.34741571898107e-12
2.42244137297637e-12
-3.96945156123367e-12
2.100067933562e-12
-3.19719358647278e-12
1.39748719910083e-12
2.80943182749662e-12
4.16384309981522e-13
2.0623349639107e-11
2.9098847933666e-11
-3.66435795210691e-13
2.92531082797823e-11
-1.34420085720952e-12
2.16094219043212e-11
-2.01574682968851e-12
3.82997702936708e-12
-2.36287277363642e-12
-2.94093888878721e-12
-2.47333189911141e-12
-4.28155692463772e-12
-2.43114219141137e-12
-3.89312900955123e-12
-2.3001438280934e-12
-3.05645443017746e-12
-2.12619488576834e-12
-2.25763638625556e-12
-1.937581799123e-12
-1.58975256233224e-12
-1.75061133486571e-12
-1.04737540469121e-12
-1.57366307116263e-12
-6.08375326959964e-13
-1.41030506997438e-12
-2.50728096453973e-13
-1.26145995067292e-12
4.28814394015133e-14
-1.12664611194867e-12
2.85843979695821e-13
-1.00472238670515e-12
4.88264856794157e-13
-8.94278227230944e-13
6.57759990150892e-13
-7.93846049099531e-13
8.00071042870307e-13
-7.0199413517907e-13
9.19560997035902e-13
-6.1738023389755e-13
1.01956778739034e-12
-5.38746042690378e-13
1.10264971537653e-12
-4.64930262091401e-13
1.1707688035726e-12
-3.94840265457609e-13
1.22542986798833e-12
-3.27448549104609e-13
1.26773584236938e-12
-2.61760834942957e-13
1.29848254406304e-12
-1.96822690944506e-13
1.31818827315408e-12
-1.31679196586335e-13
1.32712185358907e-12
-6.53766776641121e-14
1.32531435925165e-12
3.07796583873721e-15
1.31254476774663e-12
7.47091304680132e-14
1.28833412797045e-12
1.50609863776889e-13
1.25192204926791e-12
2.31930149018788e-13
1.20222469044514e-12
3.19914146278926e-13
1.13779802679349e-12
4.15898524163686e-13
1.05669463234168e-12
5.21314596021071e-13
9.56339574971874e-13
6.37657369910081e-13
8.33388222725571e-13
7.66450883198392e-13
6.83455136070617e-13
9.0912795040578e-13
5.00775847737829e-13
1.06681528101987e-12
2.77881160867275e-13
1.23990404185083e-12
4.74646323742054e-15
1.42728453335549e-12
-3.32022567663481e-13
1.62506991850484e-12
-7.49523206372976e-13
1.824399596141e-12
-1.26926893050227e-12
2.00828765654722e-12
-1.9131067904855e-12
2.14799270394359e-12
-2.6876046082467e-12
2.19892027953937e-12
-3.52034677814717e-12
2.10428578168586e-12
-3.99641138957307e-12
1.79749314880207e-12
-3.01074582265924e-12
1.19819814457292e-12
3.28768282482686e-12
2.94998787479439e-13
2.13994991198254e-11
2.93024901541326e-11
-3.09098467233882e-13
2.94117020927443e-11
-1.16312597320356e-12
2.22387845811768e-11
-1.7418745773018e-12
4.19288094580458e-12
-2.06960175563283e-12
-2.81343920944796e-12
-2.19595471058648e-12
-4.34584681737429e-12
-2.18934571816838e-12
-4.0856103786508e-12
-2.09815981734882e-12
-3.3309647967715e-12
-1.9613574161274e-12
-2.57601992857974e-12
-1.80433180285422e-12
-1.92687137171944e-12
-1.64297846906702e-12
-1.38740356483173e-12
-1.48635701282772e-12
-9.42280566061775e-13
-1.33901910685501e-12
-5.73968193814838e-13
-1.20285128158485e-12
-2.67831949168946e-13
-1.07816509733418e-12
-1.20595418193705e-14
-9.64446272898044e-13
2.02599775295409e-13
-8.60750619429818e-13
3.83324476639904e-13
-7.65961910702621e-13
5.35658906164004e-13
-6.78910200045073e-13
6.63912240590566e-13
-5.98448419651192e-13
7.7142901620895e-13
-5.23468660255956e-13
8.60816278495514e-13
-4.52927872983245e-13
9.34093538024596e-13
-3.85827965628743e-13
9.92825357020206e-13
-3.21221701007092e-13
1.03816481402565e-12
-2.58184734095823e-13
1.07094751529523e-12
-1.95825616823247e-13
1.09172778314746e-12
-1.33248170225945e-13
1.10078638119794e-12
-6.95591489310699e-14
1.09816229821906e-12
-3.83024973885762e-15
1.0836150368759e-12
6.48920642821894e-14
1.05664608866014e-12
1.37619738873647e-13
1.01645039515849e-12
2.15404801016881e-13
9.61909405090296e-13
2.99370879759097e-13
8.91518808151404e-13
3.90702418016698e-13
8.03274988490007e-13
4.90631129999773e-13
6.94565825688299e-13
6.00389394299564e-13
5.62049568298086e-13
7.21146308782918e-13
4.01411992129008e-13
8.53871958080198e-13
2.07088716355938e-13
9.9908052967947e-13
-2.79341543320239e-14
1.15638040574824e-12
-3.12788987855929e-13
1.32373492476469e-12
-6.59251328994564e-13
1.49632661542408e-12
-1.08168569738984e-12
1.6647353148178e-12
-1.59707269170023e-12
1.81258873602569e-12
-2.22041244037151e-12
1.91436716968026e-12
-2.94926357024245e-12
1.93221837856972e-12
-3.69902462544061e-12
1.8236225711814e-12
-4.05012637607327e-12
1.53239556534919e-12
-2.88406134652879e-12
1.01883077151949e-12
3.63197597769918e-12
2.36352353957567e-13
2.2008171408552e-11
2.94210489413524e-11
-2.77731162686931e-13
2.95057523072256e-11
-1.00507351924419e-12
2.27077651042844e-11
-1.50557716601173e-12
4.45042529372035e-12
-1.81098719339707e-12
-2.73228709249592e-12
-1.94569620174078e-12
-4.42395221650627e-12
-1.96491886668167e-12
-4.27330250326134e-12
-1.90530759822593e-12
-3.59432911297963e-12
-1.79961467080461e-12
-2.88341816789533e-12
-1.67025721577955e-12
-2.25630010203702e-12
-1.53222204423429e-12
-1.72401677083601e-12
-1.39472252700377e-12
-1.27692603226075e-12
-1.2628999107826e-12
-9.01532658048072e-13
-1.13930939233412e-12
-5.85797347043182e-13
-1.0248822637653e-12
-3.19532290117579e-13
-9.19617920136578e-13
-9.44434092219695e-14
-8.22979153775122e-13
9.61061471909805e-14
-7.34164230831999e-13
2.57372630377436e-13
-6.52245970327325e-13
3.93540332879381e-13
-5.76264097062687e-13
5.0790613063503e-13
-5.05256837525259e-13
6.03083756819637e-13
-4.38301050749209e-13
6.81125321084071e-13
-3.74493065433659e-13
7.43628620381851e-13
-3.12969170016777e-13
7.91786552710372e-13
-2.52877825884412e-13
8.26462366665909e-13
-1.93392663794739e-13
8.48239134669312e-13
-1.33684811247272e-13
8.57411404980875e-13
-7.29202550471578e-14
8.54017954999926e-13
-1.02421087256603e-14
8.37810444091559e-13
5.52344419006503e-14
8.08268037179744e-13
1.24431549194207e-13
7.64561989438919e-13
1.98308289086308e-13
7.05541619404165e-13
2.77862077502729e-13
6.29675958546222e-13
3.64133338793307e-13
5.34922772849156e-13
4.58161249961181e-13
4.18680879864347e-13
5.60936253835565e-13
2.77660541782785e-13
6.73314224933114e-13
1.07688987833977e-13
7.95860373671492e-13
-9.65085425555466e-14
9.28593920954479e-13
-3.41403617955009e-13
1.07052122511315e-12
-6.35135696191347e-13
1.21896135369011e-12
-9.87827663101785e-13
1.36857187539933e-12
-1.4112439920453e-12
1.50987321485609e-12
-1.91831715202015e-12
1.62756810486945e-12
-2.51836151751908e-12
1.69931842969252e-12
-3.20209078522028e-12
1.69327350249452e-12
-3.87570849678462e-12
1.57750882775774e-12
-4.12009362735926e-12
1.3049209074761e-12
-2.80242113805104e-12
8.62260806940287e-13
3.8759035814288e-12
2.03561224834645e-13
2.24641175379483e-11
2.94918338983412e-11
-2.54674292548776e-13
2.95578806598715e-11
-8.69331151213665e-13
2.30477751929994e-11
-1.30350212584423e-12
4.63004066577949e-12
-1.58394056183266e-12
-2.6858483013816e-12
-1.72071166706769e-12
-4.50865944147145e-12
-1.7576907974026e-12
-4.45122279514687e-12
-1.72262142006811e-12
-3.84075819996058e-12
-1.64266137426932e-12
-3.1725051453608e-12
-1.53730524616559e-12
-2.56906375720207e-12
-1.42029934028153e-12
-2.04689592042039e-12
-1.30062531099296e-12
-1.60101958512436e-12
-1.18368117383345e-12
-1.22148145278033e-12
-1.07244785445436e-12
-8.98665666085765e-13
-9.68311667811095e-13
-6.23977067961746e-13
-8.71675984469443e-13
-3.90127998890983e-13
-7.82340859054593e-13
-1.91088187990362e-13
-6.99782417013684e-13
-2.19474629521886e-14
-6.23289588175405e-13
1.21292655497899e-13
-5.52080399243566e-13
2.41844158987113e-13
-4.85333144229768e-13
3.42289415453445e-13
-4.2223917830044e-13
4.24687867877903e-13
-3.61992716031883e-13
4.90653008014357e-13
-3.03812674175729e-13
5.41402140371738e-13
-2.46925649782126e-13
5.77822156499027e-13
-1.90570283039439e-13
6.00510977789658e-13
-1.33988210969124e-13
6.09782362545928e-13
-7.64096069696665e-14
6.05667876484194e-13
-1.70500867743724e-14
5.8792002624176e-13
4.49021686792559e-14
5.5599570210247e-13
1.10282214464147e-13
5.09055856826488e-13
1.79950080412598e-13
4.45930281351448e-13
2.54785720035812e-13
3.65079054342509e-13
3.35687700661978e-13
2.64445740542441e-13
4.23519065295496e-13
1.41474235298136e-13
5.19049739741049e-13
-7.02854383036131e-15
6.22864041748579e-13
-1.85043984638162e-13
7.35187332242349e-13
-3.97489922820644e-13
8.55651178424995e-13
-6.50249951279917e-13
9.82832126306374e-13
-9.50431067064485e-13
1.1136486622739e-12
-1.30653797771066e-12
1.24255854058958e-12
-1.72794310842526e-12
1.36039113161967e-12
-2.22405075265415e-12
1.45320892086357e-12
-2.79955780980964e-12
1.50171255666574e-12
-3.44005658186191e-12
1.47943534504429e-12
-4.04504931127591e-12
1.3623230486144e-12
-4.19877738929654e-12
1.1115840672434e-12
-2.75510912935659e-12
7.28349878882695e-13
4.04497432978332e-12
1.79540912039558e-13
2.27951416016899e-11
2.95313436492414e-11
-2.33279639072878e-13
2.95828107200569e-11
-7.52890241217275e-13
2.32918501687239e-11
-1.13018468317435e-12
4.75453435846376e-12
-1.38429766796172e-12
-2.66337309954554e-12
-1.51837146591636e-12
-4.59336046359639e-12
-1.56670089949422e-12
-4.61481948016076e-12
-1.55030937081256e-12
-4.065369238469e-12
-1.49138895376011e-12
-3.43733136596047e-12
-1.40666358284347e-12
-2.85794288157638e-12
-1.30846220693315e-12
-2.34770400713824e-12
-1.20526585785225e-12
-1.90536302632047e-12
-1.10246368368941e-12
-1.52401297769437e-12
-1.00325997489866e-12
-1.19622840204683e-12
-9.09342659970328e-13
-9.14929739920503e-13
-8.21419605645245e-13
-6.73831272486902e-13
-7.3956189402799e-13
-4.67542356982434e-13
-6.63481655494964e-13
-2.91532962887478e-13
-5.92659981944138e-13
-1.42033586717285e-13
-5.26472734088486e-13
-1.59517355828381e-14
-4.64234002065383e-13
8.92424542982482e-14
-4.05245837195409e-13
1.7558942571789e-13
-3.48797974622231e-13
2.44703739739973e-13
-2.94193855798705e-13
2.9781650415623e-13
-2.40735187140102e-13
3.35827181102217e-13
-1.87735314903504e-13
3.59348847196222e-13
-1.34501346935853e-13
3.68704843331548e-13
-8.03356261752351e-14
3.6392596635873e-13
-2.45215511602615e-14
3.44760627847563e-13
3.36700272064164e-14
3.10658652327374e-13
9.49935285331953e-14
2.6076825890222e-13
1.60205503513113e-13
1.93922057868349e-13
2.30080435939649e-13
1.08573539255717e-13
3.05376479832824e-13
2.68722359235274e-15
3.86797308130024e-13
-1.26229888050772e-13
4.74920385031716e-13
-2.81240798575121e-13
5.70097877025035e-13
-4.66096055315234e-13
6.72287921580375e-13
-6.85321176714832e-13
7.80828949274072e-13
-9.44186886761862e-13
8.940189188204e-13
-1.24878249008873e-12
1.0085790502034e-12
-1.60607688348716e-12
1.11901679533419e-12
-2.02329910436334e-12
1.21673251219245e-12
-2.50684930041361e-12
1.28929186209785e-12
-3.0577473707632e-12
1.32022195476716e-12
-3.65781725213344e-12
1.28783185155315e-12