/*--------------------------------*- C++ -*----------------------------------*\
  =========                 |
  \\      /  F ield         | OpenFOAM: The Open Source CFD Toolbox
   \\    /   O peration     | Website:  https://openfoam.org
    \\  /    A nd           | Version:  10
     \\/     M anipulation  |
\*---------------------------------------------------------------------------*/
FoamFile
{
    format      ascii;
    class       volScalarField;
    location    "3.6";
    object      rho;
}
// * * * * * * * * * * * * * * * * * * * * * * * * * * * * * * * * * * * * * //

dimensions      [1 -3 0 0 0 0 0];

internalField   nonuniform List<scalar> 
2500
(
1.14271973124427
1.14281043370774
1.14289354349504
1.14293357945067
1.14295035402691
1.1429570737873
1.14295965899071
1.1429606069914
1.14296093829278
1.14296104660579
1.14296108576264
1.1429611002167
1.14296110611226
1.14296111113687
1.1429611154427
1.1429611200202
1.1429611224446
1.14296112537881
1.14296112869527
1.14296113105881
1.14296113320389
1.14296113522758
1.14296113696397
1.14296113789539
1.14296113887318
1.14296113992653
1.14296114031027
1.14296114062292
1.14296114080686
1.14296114052437
1.14296114009281
1.14296113934631
1.14296113798836
1.142961136209
1.1429611344754
1.14296113254951
1.14296113014845
1.14296112739024
1.1429611203672
1.14296110540597
1.14296106350556
1.14296093981743
1.1429605809015
1.1429595836758
1.14295693416716
1.14295020998853
1.14293355677564
1.14289353951538
1.14280931283924
1.14272024904499
1.14864613269999
1.14894096856953
1.1491746569739
1.14929383640759
1.14934856947614
1.14937253731502
1.14938252053773
1.14938642629941
1.14938785309222
1.14938833903049
1.14938849659208
1.14938854521236
1.14938855956109
1.14938856494145
1.14938856779332
1.14938857009662
1.14938857138333
1.14938857283997
1.14938857451568
1.14938857585144
1.1493885772423
1.14938857878907
1.14938858019946
1.14938858088035
1.14938858141188
1.1493885821332
1.14938858236397
1.14938858257639
1.14938858303128
1.14938858279159
1.14938858262364
1.14938858270988
1.14938858131853
1.14938857943348
1.14938857845422
1.14938857745078
1.14938857518493
1.1493885695164
1.14938855094501
1.14938849254382
1.14938831018467
1.14938776632279
1.14938623495066
1.14938217959717
1.14937207490702
1.14934821563335
1.14929395149843
1.14917466700976
1.1489369273144
1.14864467952679
1.15383272327912
1.15421112568698
1.15448948759168
1.15463060130266
1.1546953220542
1.15472367045387
1.15473551449423
1.15474017439916
1.1547418880962
1.15474247621552
1.15474266639223
1.15474272418094
1.1547427402642
1.15474274496792
1.1547427465811
1.1547427474179
1.15474274780312
1.15474274825597
1.15474274887209
1.15474274941919
1.15474275012823
1.15474275109138
1.15474275206908
1.15474275255997
1.15474275281713
1.154742753265
1.15474275334575
1.15474275345109
1.1547427539096
1.15474275379813
1.15474275380193
1.15474275413326
1.15474275297503
1.15474275140264
1.15474275128483
1.1547427511949
1.15474274922063
1.15474274310359
1.15474272239371
1.15474265418525
1.15474243865342
1.15474179401032
1.15473998010251
1.15473518363811
1.15472324517291
1.15469502918783
1.15463069775767
1.15448889735478
1.15420434323963
1.15382136356328
1.15752994698652
1.15786064811181
1.1580766183731
1.15818250256415
1.15822903792057
1.15824863433729
1.15825658656917
1.15825965769229
1.15826077507445
1.15826115650407
1.15826127947855
1.15826131653996
1.15826132645651
1.15826132905929
1.15826132965776
1.15826132978298
1.15826132974643
1.15826132975307
1.15826132986638
1.1582613299984
1.15826133026025
1.1582613307481
1.15826133133447
1.15826133167208
1.15826133177615
1.15826133199815
1.15826133201149
1.15826133197284
1.15826133218639
1.15826133218447
1.15826133220285
1.15826133253231
1.15826133189884
1.15826133108882
1.15826133108321
1.15826133107079
1.15826133036376
1.15826132705622
1.15826131469291
1.1582612729838
1.15826113896995
1.15826073190607
1.15825956848903
1.15825643367747
1.15824843621774
1.15822889199497
1.15818241804735
1.15807540465986
1.15785333478329
1.1575120361839
1.1597695381949
1.15999666964808
1.1601296765876
1.16019280771903
1.16021951198146
1.1602303639422
1.16023465595259
1.16023628968999
1.16023688063684
1.16023708232209
1.16023714756996
1.16023716720415
1.1602371722971
1.16023717344186
1.1602371735131
1.16023717343914
1.16023717331713
1.16023717323047
1.16023717322276
1.16023717322378
1.16023717327373
1.16023717346877
1.16023717376757
1.16023717397245
1.1602371739814
1.16023717398681
1.1602371739705
1.1602371739514
1.16023717403058
1.16023717404215
1.16023717407906
1.16023717434439
1.16023717405456
1.16023717370676
1.16023717375561
1.16023717377054
1.16023717356007
1.16023717214628
1.16023716610949
1.16023714511569
1.16023707689634
1.16023686767024
1.16023626361112
1.16023461339077
1.16023031620479
1.16021949471444
1.16019274830344
1.16012863392798
1.1599908941394
1.15975216103681
1.16095750463289
1.16108856593055
1.16115806885952
1.16119010981728
1.16120323677236
1.16120841081915
1.16121041229386
1.16121116553313
1.16121143726836
1.16121153028001
1.16121156056972
1.1612115697084
1.1612115719808
1.16121157239691
1.16121157236266
1.16121157227573
1.1612115721733
1.16121157209191
1.16121157205663
1.16121157204171
1.16121157203709
1.16121157209721
1.16121157222775
1.1612115723171
1.16121157229992
1.16121157227278
1.16121157225827
1.16121157224546
1.16121157226778
1.16121157227761
1.1612115723137
1.16121157247213
1.16121157235896
1.16121157223346
1.16121157229173
1.16121157230193
1.16121157226363
1.16121157175301
1.16121156915714
1.16121155985008
1.16121152934964
1.16121143536004
1.16121116254922
1.16121041036167
1.16120841939912
1.16120327407363
1.16119012130218
1.1611574685583
1.16108492413191
1.16094474542437
1.1615218474313
1.16158793478677
1.16161998733579
1.16163437851417
1.16164012211398
1.16164232855202
1.16164316584982
1.16164347806149
1.16164359061192
1.16164362931757
1.16164364201992
1.16164364586946
1.16164364678858
1.16164364691527
1.16164364687505
1.16164364681839
1.16164364675761
1.16164364670793
1.16164364667827
1.16164364666719
1.1616436466585
1.16164364667437
1.16164364672572
1.16164364675523
1.16164364674099
1.16164364672472
1.16164364671704
1.16164364671075
1.16164364671883
1.16164364672363
1.16164364674374
1.16164364682524
1.16164364678876
1.16164364675227
1.16164364678409
1.16164364679108
1.16164364679516
1.16164364663619
1.16164364563552
1.161643641871
1.16164362946506
1.16164359120885
1.1616434800147
1.16164317180128
1.16164234564232
1.16164016319152
1.16163442111347
1.16161972643397
1.16158600017008
1.16151411709855
1.16176611225218
1.16179600262786
1.16180939489251
1.16181526161982
1.16181755331623
1.16181841504089
1.16181873664522
1.16181885563003
1.1618188985367
1.16181891337396
1.1618189182801
1.16181891977284
1.16181892011295
1.16181892014552
1.16181892012552
1.16181892009679
1.16181892006765
1.16181892004394
1.16181892002864
1.16181892002368
1.16181892001817
1.16181892002223
1.16181892004124
1.16181892004859
1.16181892004157
1.16181892003624
1.16181892003406
1.16181892003186
1.16181892003677
1.16181892004191
1.16181892005124
1.16181892008738
1.16181892007937
1.16181892007282
1.1618189200854
1.16181892009002
1.16181892010328
1.16181892006223
1.16181891970394
1.1618189182878
1.16181891360076
1.16181889918239
1.16181885734971
1.16181874116047
1.16181842680651
1.16181758104836
1.16181530068495
1.1618093074135
1.16179510582686
1.16176206032185
1.1618637367057
1.16187608905385
1.161881254062
1.1618834637534
1.1618843116307
1.16188462485324
1.16188474007024
1.16188478240441
1.16188479768153
1.16188480299475
1.16188480476375
1.16188480530325
1.16188480542288
1.16188480543111
1.16188480542194
1.16188480541002
1.1618848053986
1.16188480538963
1.16188480538395
1.1618848053829
1.1618848053814
1.16188480538369
1.16188480539061
1.16188480539234
1.16188480539093
1.16188480539076
1.16188480539152
1.16188480539222
1.16188480539578
1.16188480539986
1.16188480540506
1.16188480542061
1.16188480542094
1.16188480542242
1.16188480542886
1.16188480543187
1.16188480543933
1.16188480543161
1.16188480531277
1.16188480481166
1.16188480314487
1.16188479804057
1.16188478329282
1.16188474235786
1.16188463089691
1.16188432649841
1.16188348860675
1.1618812334286
1.16187571748184
1.16186184362858
1.1619001422017
1.16190487101829
1.1619067350711
1.16190751422251
1.16190780867398
1.16190791587647
1.16190795481863
1.16190796903801
1.1619079741733
1.16190797596934
1.16190797657125
1.16190797675534
1.16190797679617
1.16190797679904
1.16190797679614
1.16190797679259
1.16190797678953
1.16190797678748
1.16190797678664
1.1619079767874
1.16190797678851
1.16190797679099
1.16190797679426
1.16190797679593
1.1619079767971
1.16190797679884
1.16190797680085
1.16190797680287
1.16190797680586
1.16190797680909
1.16190797681265
1.16190797681982
1.16190797682258
1.1619079768252
1.1619079768287
1.16190797683153
1.1619079768361
1.16190797683632
1.16190797679916
1.16190797663115
1.16190797606853
1.16190797435448
1.16190796942997
1.1619079557981
1.16190791853706
1.16190781556099
1.16190752712689
1.16190673380969
1.16190473108467
1.16189933755758
1.1619129108559
1.16191460577632
1.16191524178938
1.16191550158883
1.16191559846971
1.16191563332316
1.16191564584848
1.16191565039595
1.16191565203944
1.16191565261754
1.16191565281285
1.1619156528733
1.16191565288752
1.1619156528895
1.16191565288967
1.16191565288978
1.16191565289021
1.16191565289106
1.16191565289235
1.16191565289421
1.16191565289627
1.16191565289875
1.16191565290147
1.16191565290374
1.16191565290596
1.16191565290836
1.16191565291082
1.16191565291329
1.16191565291605
1.16191565291886
1.16191565292173
1.16191565292557
1.16191565292819
1.16191565293076
1.1619156529336
1.1619156529363
1.16191565293938
1.16191565294101
1.16191565293063
1.1619156528775
1.16191565269657
1.16191565214709
1.16191565057761
1.16191564625056
1.1619156344028
1.16191560136013
1.16191550744664
1.16191524391004
1.16191455731868
1.16191259505406
1.16191714437375
1.16191771794921
1.16191792470797
1.16191800727194
1.1619180376926
1.16191804853058
1.16191805239035
1.16191805378464
1.1619180542891
1.1619180544679
1.16191805452929
1.16191805454913
1.16191805455481
1.16191805455677
1.16191805455826
1.16191805455983
1.16191805456158
1.16191805456354
1.16191805456568
1.16191805456803
1.1619180545705
1.1619180545731
1.16191805457577
1.16191805457833
1.1619180545809
1.1619180545835
1.16191805458611
1.16191805458871
1.16191805459135
1.16191805459397
1.16191805459657
1.16191805459937
1.16191805460183
1.16191805460423
1.16191805460667
1.16191805460903
1.16191805461141
1.16191805461325
1.16191805461134
1.16191805459598
1.16191805454081
1.16191805437225
1.16191805389248
1.1619180525753
1.1619180489682
1.16191803884052
1.16191800970162
1.16191792637744
1.16191770241415
1.16191702864825
1.16191847031077
1.16191865482492
1.16191871924585
1.16191874440931
1.16191875357845
1.16191875681943
1.16191875796528
1.16191875837765
1.16191875852738
1.1619187585813
1.16191875860065
1.1619187586078
1.16191875861085
1.16191875861289
1.16191875861488
1.16191875861698
1.1619187586192
1.16191875862154
1.16191875862399
1.16191875862653
1.16191875862914
1.1619187586318
1.16191875863449
1.16191875863716
1.16191875863983
1.16191875864249
1.16191875864512
1.16191875864773
1.16191875865032
1.16191875865285
1.16191875865534
1.16191875865782
1.16191875866017
1.16191875866245
1.16191875866468
1.16191875866684
1.16191875866892
1.16191875867077
1.16191875867143
1.16191875866798
1.16191875865253
1.16191875860339
1.1619187584626
1.1619187580767
1.16191875702012
1.16191875403896
1.16191874537258
1.16191872014241
1.16191865021761
1.16191843038746
1.16191885525103
1.16191891199202
1.16191893131829
1.16191893870956
1.16191894137497
1.16191894231121
1.16191894264056
1.16191894275906
1.16191894280267
1.16191894281911
1.16191894282582
1.16191894282916
1.16191894283143
1.16191894283352
1.16191894283568
1.16191894283795
1.16191894284032
1.16191894284278
1.16191894284532
1.16191894284792
1.16191894285057
1.16191894285325
1.16191894285595
1.16191894285863
1.16191894286131
1.16191894286397
1.1619189428666
1.16191894286919
1.16191894287174
1.16191894287423
1.16191894287666
1.16191894287904
1.16191894288132
1.16191894288353
1.16191894288566
1.16191894288771
1.16191894288967
1.1619189428915
1.16191894289291
1.16191894289306
1.16191894288968
1.16191894287657
1.1619189428373
1.16191894272858
1.1619189424301
1.1619189415841
1.16191893910201
1.16191893174993
1.16191891075645
1.16191884221892
1.16191894920953
1.16191896596738
1.16191897157009
1.16191897367078
1.16191897442102
1.16191897468339
1.16191897477564
1.16191897480923
1.16191897482219
1.16191897482779
1.16191897483084
1.16191897483307
1.16191897483512
1.16191897483722
1.16191897483943
1.16191897484174
1.16191897484416
1.16191897484665
1.1619189748492
1.16191897485181
1.16191897485446
1.16191897485713
1.16191897485982
1.16191897486249
1.16191897486516
1.1619189748678
1.16191897487041
1.16191897487298
1.16191897487549
1.16191897487795
1.16191897488034
1.16191897488267
1.16191897488491
1.16191897488707
1.16191897488915
1.16191897489114
1.16191897489304
1.16191897489484
1.16191897489645
1.16191897489765
1.16191897489779
1.16191897489517
1.16191897488527
1.16191897485624
1.16191897477513
1.16191897454332
1.1619189738565
1.16191897178683
1.16191896570338
1.16191894518877
1.16191895678356
1.16191896155551
1.16191896312968
1.16191896370931
1.16191896391458
1.16191896398633
1.1619189640119
1.16191896402171
1.16191896402611
1.16191896402868
1.16191896403069
1.16191896403261
1.1619189640346
1.1619189640367
1.16191896403891
1.16191896404123
1.16191896404365
1.16191896404613
1.16191896404868
1.16191896405128
1.16191896405392
1.16191896405657
1.16191896405923
1.16191896406189
1.16191896406453
1.16191896406715
1.16191896406974
1.16191896407227
1.16191896407476
1.16191896407719
1.16191896407955
1.16191896408183
1.16191896408404
1.16191896408617
1.16191896408821
1.16191896409016
1.16191896409203
1.16191896409379
1.16191896409544
1.16191896409692
1.16191896409804
1.16191896409836
1.16191896409667
1.16191896408982
1.16191896406904
1.16191896400797
1.16191896382414
1.16191896325973
1.16191896155318
1.1619189556349
1.16191893963774
1.16191894095221
1.16191894138195
1.16191894153775
1.16191894159267
1.16191894161211
1.16191894161946
1.16191894162282
1.1619189416249
1.16191894162665
1.16191894162839
1.16191894163023
1.16191894163219
1.16191894163428
1.16191894163649
1.1619189416388
1.1619189416412
1.16191894164368
1.16191894164621
1.16191894164879
1.16191894165141
1.16191894165404
1.16191894165668
1.16191894165931
1.16191894166193
1.16191894166452
1.16191894166708
1.16191894166959
1.16191894167204
1.16191894167444
1.16191894167677
1.16191894167902
1.1619189416812
1.16191894168329
1.1619189416853
1.16191894168722
1.16191894168905
1.16191894169079
1.16191894169242
1.16191894169395
1.16191894169532
1.16191894169643
1.16191894169694
1.16191894169606
1.16191894169151
1.16191894167643
1.16191894162905
1.16191894147979
1.16191894101532
1.16191893936436
1.16191891564988
1.16191891600103
1.16191891611532
1.16191891615635
1.16191891617096
1.16191891617646
1.16191891617899
1.16191891618065
1.16191891618213
1.16191891618367
1.16191891618534
1.16191891618716
1.16191891618911
1.16191891619119
1.16191891619339
1.16191891619569
1.16191891619808
1.16191891620054
1.16191891620305
1.16191891620561
1.1619189162082
1.16191891621081
1.16191891621342
1.16191891621603
1.16191891621862
1.16191891622118
1.16191891622371
1.16191891622619
1.16191891622862
1.16191891623098
1.16191891623328
1.1619189162355
1.16191891623765
1.16191891623971
1.16191891624169
1.16191891624357
1.16191891624537
1.16191891624707
1.16191891624868
1.1619189162502
1.16191891625161
1.16191891625289
1.16191891625397
1.16191891625462
1.16191891625429
1.16191891625121
1.16191891623975
1.16191891620161
1.16191891607883
1.16191891563242
1.16191888982492
1.16191888991602
1.16191888994576
1.16191888995654
1.16191888996064
1.16191888996255
1.16191888996385
1.16191888996509
1.16191888996643
1.16191888996793
1.16191888996958
1.16191888997139
1.16191888997333
1.16191888997541
1.1619188899776
1.16191888997988
1.16191888998225
1.16191888998469
1.16191888998719
1.16191888998973
1.16191888999229
1.16191888999488
1.16191888999746
1.16191889000004
1.16191889000261
1.16191889000514
1.16191889000764
1.16191889001009
1.16191889001248
1.16191889001482
1.16191889001708
1.16191889001927
1.16191889002138
1.16191889002341
1.16191889002536
1.16191889002721
1.16191889002897
1.16191889003064
1.16191889003222
1.16191889003371
1.1619188900351
1.1619188900364
1.16191889003758
1.1619188900386
1.1619188900393
1.16191889003924
1.16191889003696
1.16191889002772
1.16191888999627
1.16191888987919
1.16191886352026
1.16191886354316
1.16191886355085
1.16191886355387
1.16191886355532
1.16191886355634
1.16191886355736
1.16191886355851
1.16191886355983
1.16191886356132
1.16191886356298
1.16191886356478
1.16191886356672
1.16191886356879
1.16191886357097
1.16191886357324
1.16191886357559
1.16191886357801
1.16191886358049
1.161918863583
1.16191886358555
1.1619188635881
1.16191886359066
1.16191886359322
1.16191886359575
1.16191886359825
1.16191886360072
1.16191886360314
1.1619188636055
1.1619188636078
1.16191886361003
1.16191886361219
1.16191886361427
1.16191886361627
1.16191886361817
1.16191886361999
1.16191886362172
1.16191886362336
1.1619188636249
1.16191886362635
1.16191886362771
1.16191886362899
1.16191886363016
1.16191886363123
1.16191886363215
1.1619188636328
1.16191886363276
1.16191886363083
1.16191886362313
1.16191886359348
1.16191883709353
1.16191883709903
1.16191883710113
1.16191883710224
1.16191883710305
1.16191883710388
1.16191883710486
1.16191883710601
1.16191883710733
1.16191883710883
1.16191883711049
1.16191883711229
1.16191883711423
1.16191883711629
1.16191883711846
1.16191883712071
1.16191883712305
1.16191883712545
1.16191883712791
1.1619188371304
1.16191883713291
1.16191883713544
1.16191883713798
1.1619188371405
1.161918837143
1.16191883714548
1.16191883714791
1.1619188371503
1.16191883715263
1.1619188371549
1.1619188371571
1.16191883715922
1.16191883716126
1.16191883716322
1.1619188371651
1.16191883716688
1.16191883716857
1.16191883717017
1.16191883717168
1.16191883717309
1.16191883717442
1.16191883717565
1.16191883717679
1.16191883717783
1.16191883717876
1.16191883717954
1.16191883718002
1.16191883717985
1.16191883717816
1.1619188371711
1.16191881063651
1.16191881063769
1.16191881063842
1.16191881063909
1.16191881063978
1.16191881064059
1.16191881064158
1.16191881064275
1.16191881064409
1.1619188106456
1.16191881064726
1.16191881064906
1.161918810651
1.16191881065305
1.1619188106552
1.16191881065745
1.16191881065977
1.16191881066215
1.16191881066458
1.16191881066705
1.16191881066954
1.16191881067204
1.16191881067455
1.16191881067704
1.16191881067952
1.16191881068196
1.16191881068436
1.16191881068671
1.16191881068901
1.16191881069125
1.16191881069341
1.1619188106955
1.16191881069751
1.16191881069943
1.16191881070127
1.16191881070302
1.16191881070467
1.16191881070624
1.16191881070771
1.16191881070908
1.16191881071036
1.16191881071155
1.16191881071265
1.16191881071365
1.16191881071454
1.16191881071531
1.16191881071587
1.16191881071609
1.16191881071586
1.16191881071447
1.16191878417216
1.16191878417231
1.16191878417273
1.16191878417332
1.16191878417401
1.16191878417485
1.16191878417586
1.16191878417705
1.16191878417841
1.16191878417993
1.16191878418159
1.1619187841834
1.16191878418533
1.16191878418737
1.16191878418951
1.16191878419174
1.16191878419405
1.16191878419641
1.16191878419882
1.16191878420126
1.16191878420373
1.16191878420621
1.16191878420868
1.16191878421115
1.16191878421359
1.161918784216
1.16191878421837
1.16191878422069
1.16191878422295
1.16191878422515
1.16191878422728
1.16191878422934
1.16191878423131
1.1619187842332
1.161918784235
1.16191878423671
1.16191878423833
1.16191878423985
1.16191878424128
1.16191878424262
1.16191878424386
1.161918784245
1.16191878424605
1.16191878424701
1.16191878424785
1.16191878424857
1.16191878424911
1.16191878424939
1.16191878424949
1.16191878424948
1.1619187577061
1.16191875770602
1.16191875770639
1.161918757707
1.16191875770771
1.16191875770858
1.16191875770962
1.16191875771083
1.1619187577122
1.16191875771373
1.16191875771541
1.16191875771721
1.16191875771914
1.16191875772117
1.1619187577233
1.16191875772552
1.1619187577278
1.16191875773014
1.16191875773253
1.16191875773495
1.16191875773739
1.16191875773984
1.16191875774229
1.16191875774473
1.16191875774714
1.16191875774952
1.16191875775185
1.16191875775414
1.16191875775637
1.16191875775853
1.16191875776063
1.16191875776265
1.16191875776458
1.16191875776644
1.1619187577682
1.16191875776988
1.16191875777146
1.16191875777294
1.16191875777433
1.16191875777563
1.16191875777682
1.16191875777792
1.16191875777893
1.16191875777983
1.16191875778063
1.1619187577813
1.16191875778179
1.16191875778205
1.1619187577822
1.1619187577825
1.16191873123966
1.16191873123955
1.16191873123993
1.16191873124057
1.16191873124131
1.16191873124221
1.16191873124328
1.16191873124451
1.1619187312459
1.16191873124744
1.16191873124912
1.16191873125092
1.16191873125285
1.16191873125487
1.16191873125699
1.16191873125919
1.16191873126146
1.16191873126378
1.16191873126615
1.16191873126855
1.16191873127096
1.16191873127338
1.1619187312758
1.16191873127821
1.16191873128059
1.16191873128293
1.16191873128524
1.16191873128749
1.16191873128969
1.16191873129182
1.16191873129387
1.16191873129586
1.16191873129776
1.16191873129957
1.1619187313013
1.16191873130294
1.16191873130448
1.16191873130593
1.16191873130728
1.16191873130853
1.16191873130968
1.16191873131074
1.16191873131169
1.16191873131255
1.16191873131329
1.16191873131392
1.16191873131437
1.16191873131458
1.16191873131472
1.16191873131507
1.16191870477315
1.16191870477306
1.16191870477346
1.16191870477413
1.16191870477491
1.16191870477583
1.16191870477693
1.16191870477818
1.16191870477959
1.16191870478114
1.16191870478282
1.16191870478463
1.16191870478655
1.16191870478856
1.16191870479067
1.16191870479286
1.16191870479511
1.16191870479741
1.16191870479976
1.16191870480213
1.16191870480452
1.16191870480691
1.1619187048093
1.16191870481168
1.16191870481403
1.16191870481634
1.16191870481861
1.16191870482083
1.16191870482299
1.16191870482509
1.16191870482711
1.16191870482906
1.16191870483092
1.1619187048327
1.16191870483439
1.16191870483599
1.16191870483749
1.1619187048389
1.16191870484021
1.16191870484142
1.16191870484253
1.16191870484354
1.16191870484445
1.16191870484525
1.16191870484595
1.16191870484652
1.16191870484693
1.1619187048471
1.1619187048472
1.16191870484755
1.16191867830663
1.16191867830656
1.161918678307
1.1619186783077
1.1619186783085
1.16191867830946
1.16191867831058
1.16191867831185
1.16191867831327
1.16191867831483
1.16191867831652
1.16191867831833
1.16191867832024
1.16191867832226
1.16191867832435
1.16191867832652
1.16191867832876
1.16191867833104
1.16191867833336
1.16191867833571
1.16191867833808
1.16191867834044
1.1619186783428
1.16191867834515
1.16191867834747
1.16191867834975
1.16191867835199
1.16191867835417
1.1619186783563
1.16191867835836
1.16191867836035
1.16191867836226
1.16191867836408
1.16191867836583
1.16191867836748
1.16191867836904
1.1619186783705
1.16191867837187
1.16191867837314
1.16191867837431
1.16191867837537
1.16191867837634
1.1619186783772
1.16191867837796
1.16191867837861
1.16191867837913
1.16191867837949
1.16191867837962
1.16191867837969
1.16191867838001
1.16191865184011
1.16191865184007
1.16191865184053
1.16191865184126
1.1619186518421
1.16191865184308
1.16191865184422
1.16191865184552
1.16191865184695
1.16191865184852
1.16191865185022
1.16191865185203
1.16191865185394
1.16191865185594
1.16191865185803
1.16191865186018
1.1619186518624
1.16191865186467
1.16191865186697
1.16191865186929
1.16191865187163
1.16191865187397
1.1619186518763
1.16191865187862
1.1619186518809
1.16191865188315
1.16191865188536
1.16191865188751
1.1619186518896
1.16191865189163
1.16191865189358
1.16191865189545
1.16191865189724
1.16191865189895
1.16191865190056
1.16191865190208
1.16191865190351
1.16191865190484
1.16191865190607
1.16191865190719
1.16191865190822
1.16191865190914
1.16191865190996
1.16191865191067
1.16191865191127
1.16191865191174
1.16191865191206
1.16191865191214
1.16191865191218
1.16191865191247
1.16191862537358
1.16191862537356
1.16191862537406
1.16191862537482
1.16191862537568
1.16191862537669
1.16191862537786
1.16191862537917
1.16191862538062
1.1619186253822
1.1619186253839
1.16191862538571
1.16191862538762
1.16191862538961
1.16191862539169
1.16191862539383
1.16191862539603
1.16191862539828
1.16191862540056
1.16191862540286
1.16191862540517
1.16191862540748
1.16191862540979
1.16191862541207
1.16191862541433
1.16191862541655
1.16191862541872
1.16191862542084
1.16191862542289
1.16191862542488
1.1619186254268
1.16191862542864
1.1619186254304
1.16191862543206
1.16191862543364
1.16191862543512
1.16191862543651
1.1619186254378
1.16191862543899
1.16191862544007
1.16191862544105
1.16191862544193
1.1619186254427
1.16191862544337
1.16191862544392
1.16191862544435
1.16191862544462
1.16191862544466
1.16191862544466
1.16191862544493
1.16191859890702
1.16191859890703
1.16191859890756
1.16191859890835
1.16191859890924
1.16191859891028
1.16191859891147
1.1619185989128
1.16191859891426
1.16191859891585
1.16191859891756
1.16191859891937
1.16191859892127
1.16191859892326
1.16191859892533
1.16191859892746
1.16191859892964
1.16191859893186
1.16191859893412
1.1619185989364
1.16191859893869
1.16191859894097
1.16191859894325
1.16191859894551
1.16191859894773
1.16191859894992
1.16191859895206
1.16191859895414
1.16191859895617
1.16191859895812
1.16191859896001
1.16191859896181
1.16191859896353
1.16191859896516
1.1619185989667
1.16191859896815
1.1619185989695
1.16191859897074
1.16191859897189
1.16191859897294
1.16191859897387
1.16191859897471
1.16191859897544
1.16191859897605
1.16191859897656
1.16191859897694
1.16191859897717
1.16191859897717
1.16191859897713
1.16191859897737
1.16191857244043
1.16191857244047
1.16191857244102
1.16191857244185
1.16191857244277
1.16191857244383
1.16191857244504
1.16191857244639
1.16191857244788
1.16191857244947
1.16191857245118
1.16191857245299
1.16191857245489
1.16191857245688
1.16191857245893
1.16191857246105
1.16191857246321
1.16191857246542
1.16191857246766
1.16191857246991
1.16191857247218
1.16191857247444
1.16191857247669
1.16191857247891
1.16191857248111
1.16191857248326
1.16191857248537
1.16191857248743
1.16191857248942
1.16191857249134
1.16191857249319
1.16191857249496
1.16191857249664
1.16191857249824
1.16191857249974
1.16191857250115
1.16191857250246
1.16191857250367
1.16191857250478
1.16191857250578
1.16191857250668
1.16191857250747
1.16191857250815
1.16191857250872
1.16191857250918
1.16191857250952
1.16191857250971
1.16191857250966
1.16191857250959
1.16191857250979
1.16191854597379
1.16191854597386
1.16191854597445
1.16191854597531
1.16191854597626
1.16191854597735
1.16191854597858
1.16191854597995
1.16191854598144
1.16191854598305
1.16191854598476
1.16191854598657
1.16191854598847
1.16191854599045
1.16191854599249
1.1619185459946
1.16191854599675
1.16191854599894
1.16191854600115
1.16191854600339
1.16191854600563
1.16191854600786
1.16191854601008
1.16191854601228
1.16191854601445
1.16191854601657
1.16191854601865
1.16191854602067
1.16191854602263
1.16191854602452
1.16191854602633
1.16191854602807
1.16191854602972
1.16191854603128
1.16191854603275
1.16191854603412
1.16191854603539
1.16191854603656
1.16191854603763
1.16191854603859
1.16191854603945
1.1619185460402
1.16191854604084
1.16191854604137
1.16191854604178
1.16191854604207
1.16191854604222
1.16191854604213
1.16191854604201
1.16191854604219
1.1619185195071
1.1619185195072
1.16191851950782
1.16191851950872
1.16191851950969
1.16191851951081
1.16191851951207
1.16191851951345
1.16191851951496
1.16191851951658
1.1619185195183
1.16191851952011
1.161918519522
1.16191851952397
1.16191851952601
1.1619185195281
1.16191851953023
1.1619185195324
1.1619185195346
1.16191851953681
1.16191851953903
1.16191851954124
1.16191851954343
1.1619185195456
1.16191851954774
1.16191851954984
1.16191851955189
1.16191851955388
1.1619185195558
1.16191851955766
1.16191851955944
1.16191851956114
1.16191851956276
1.16191851956428
1.16191851956572
1.16191851956705
1.16191851956829
1.16191851956942
1.16191851957045
1.16191851957138
1.16191851957219
1.1619185195729
1.1619185195735
1.16191851957398
1.16191851957435
1.1619185195746
1.1619185195747
1.16191851957456
1.16191851957441
1.16191851957455
1.16191849304035
1.16191849304047
1.16191849304113
1.16191849304207
1.16191849304307
1.16191849304422
1.1619184930455
1.1619184930469
1.16191849304842
1.16191849305005
1.16191849305177
1.16191849305358
1.16191849305547
1.16191849305743
1.16191849305946
1.16191849306154
1.16191849306366
1.16191849306581
1.16191849306799
1.16191849307018
1.16191849307238
1.16191849307456
1.16191849307673
1.16191849307888
1.16191849308099
1.16191849308305
1.16191849308507
1.16191849308703
1.16191849308893
1.16191849309075
1.1619184930925
1.16191849309417
1.16191849309575
1.16191849309725
1.16191849309864
1.16191849309994
1.16191849310115
1.16191849310224
1.16191849310324
1.16191849310412
1.1619184931049
1.16191849310557
1.16191849310612
1.16191849310656
1.16191849310689
1.16191849310709
1.16191849310715
1.16191849310696
1.16191849310676
1.16191849310687
1.16191846657351
1.16191846657367
1.16191846657438
1.16191846657536
1.16191846657639
1.16191846657756
1.16191846657886
1.16191846658028
1.16191846658181
1.16191846658345
1.16191846658517
1.16191846658699
1.16191846658887
1.16191846659083
1.16191846659285
1.16191846659492
1.16191846659702
1.16191846659916
1.16191846660132
1.16191846660349
1.16191846660566
1.16191846660782
1.16191846660997
1.16191846661209
1.16191846661417
1.16191846661621
1.1619184666182
1.16191846662013
1.161918466622
1.16191846662379
1.16191846662551
1.16191846662715
1.1619184666287
1.16191846663016
1.16191846663152
1.16191846663279
1.16191846663396
1.16191846663502