/*--------------------------------*- C++ -*----------------------------------*\
  =========                 |
  \\      /  F ield         | OpenFOAM: The Open Source CFD Toolbox
   \\    /   O peration     | Website:  https://openfoam.org
    \\  /    A nd           | Version:  10
     \\/     M anipulation  |
\*---------------------------------------------------------------------------*/
FoamFile
{
    format      ascii;
    class       volScalarField;
    location    "3.6";
    object      T;
}
// * * * * * * * * * * * * * * * * * * * * * * * * * * * * * * * * * * * * * //

dimensions      [0 0 0 1 0 0 0];

internalField   nonuniform List<scalar> 
2500
(
305.040510058824
305.016299639486
304.994119239016
304.98343556622
304.978959460686
304.977166405933
304.976476593883
304.976223639072
304.97613523837
304.976106337664
304.976095889915
304.976092033642
304.976090461071
304.976089120928
304.976087972611
304.976086751836
304.9760861056
304.976085323352
304.976084439132
304.976083809192
304.976083237557
304.976082698319
304.976082235749
304.976081987968
304.976081727814
304.976081447493
304.976081345838
304.976081263139
304.976081214775
304.976081290851
304.976081406686
304.97608160654
304.976081969524
304.976082444934
304.976082908108
304.976083422568
304.97608406379
304.976084800284
304.976086674728
304.976090667283
304.976101847975
304.976134852019
304.976230621829
304.976496712013
304.977203683367
304.978997917941
304.98344164002
304.994120324394
305.016598823208
305.040371859287
303.466656902752
303.388782709704
303.327087616117
303.295633215939
303.281189991482
303.274865676572
303.272231514435
303.271200957143
303.270824491804
303.270696275433
303.27065470265
303.270641874499
303.270638089065
303.270636670007
303.270635918136
303.270635311036
303.270634972192
303.270634588537
303.270634147098
303.270633795374
303.270633429121
303.27063302174
303.27063265035
303.27063247144
303.270632331938
303.270632142356
303.270632082198
303.270632026872
303.270631907559
303.270631971496
303.27063201649
303.270631994395
303.270632362149
303.270632860143
303.27063311912
303.270633384452
303.27063398285
303.27063547903
303.270640379647
303.27065578948
303.270703906077
303.270847406638
303.271251466514
303.272321495586
303.274987710389
303.28128338346
303.295602866766
303.327084990357
303.389849868591
303.467040847772
302.102537874771
302.003495054324
301.93067822201
301.893777626083
301.876856459926
301.869445400944
301.86634914785
301.8651309794
301.864682996236
301.86452925463
301.864479540462
301.864464434252
301.864460230415
301.864459001372
301.864458580268
301.86445836215
301.864458262109
301.864458144409
301.864457984049
301.864457841745
301.864457657123
301.864457406079
301.864457151236
301.864457023653
301.864456957171
301.864456840827
301.864456820446
301.864456793629
301.864456674474
301.864456704304
301.864456703985
301.864456618028
301.86445692144
301.864457333097
301.864457364485
301.864457388561
301.8644579052
301.864459504783
301.864464919093
301.864482750104
301.864539093299
301.864707611765
301.865181792205
301.866435660534
301.869556600623
301.876933047775
301.893752429495
301.930832608337
302.005269739718
302.105512187633
301.137596476645
301.051587385711
300.995444131019
300.967926309934
300.955834013003
300.950742139417
300.948675904923
300.947877940463
300.947587614348
300.947488509028
300.947456557401
300.947446928344
300.947444352288
300.947443676583
300.947443521683
300.947443489779
300.947443499932
300.947443498887
300.947443470143
300.947443436556
300.947443369245
300.947443243221
300.947443091605
300.947443004624
300.947442978321
300.947442921371
300.94744291863
300.947442929387
300.947442874604
300.947442875791
300.947442871686
300.947442786737
300.94744295196
300.947443163037
300.947443165082
300.947443168873
300.947443353113
300.947444213011
300.947447425811
300.947458263409
300.94749308423
300.94759885082
300.947901138799
300.948715652112
300.950793639351
300.955871952965
300.967948295446
300.995759610304
301.053488935664
301.142256162802
300.556073154912
300.497223211349
300.462771703252
300.446422218134
300.439506974926
300.43669687989
300.435585486499
300.435162441211
300.435009420049
300.434957195519
300.434940300508
300.434935216869
300.434933898615
300.434933602755
300.434933584906
300.434933604685
300.434933636934
300.434933660051
300.434933662743
300.43493366319
300.434933650979
300.434933601205
300.434933524569
300.434933472254
300.43493347067
300.434933469999
300.434933474946
300.434933480601
300.434933460798
300.434933458486
300.434933449596
300.434933381541
300.434933457218
300.434933547886
300.434933535823
300.434933532515
300.434933587551
300.434933954148
300.434935517807
300.434940954446
300.434958619765
300.435012797733
300.435169214932
300.435596529021
300.43670926322
300.439511468596
300.446437627247
300.463041765553
300.498719387828
300.560576562933
300.248518004763
300.2146265664
300.196656750424
300.188373361805
300.184979847823
300.18364230061
300.183124901076
300.182930182495
300.182859936996
300.182835893108
300.182828063411
300.182825701474
300.182825114566
300.182825007564
300.182825017014
300.182825040113
300.182825067245
300.182825088959
300.182825098775
300.18282510334
300.182825105256
300.182825090442
300.182825057428
300.182825035064
300.182825040238
300.18282504798
300.18282505245
300.182825056471
300.182825051396
300.182825049537
300.182825040871
300.182825000562
300.182825030444
300.18282506349
300.182825049007
300.182825046927
300.182825057361
300.182825189865
300.182825861394
300.182828267795
300.182836152829
300.18286045031
300.18293097456
300.183125421887
300.183640104456
300.184970227286
300.188370415379
300.196811970515
300.21556822701
300.251817869153
300.10263092862
300.085556895985
300.077276642605
300.073559064787
300.072075384453
300.071505423792
300.071289136199
300.071208487137
300.071179413886
300.071169415987
300.071166135206
300.071165141293
300.071164904394
300.071164872228
300.071164883213
300.071164898476
300.071164914826
300.071164928333
300.071164936686
300.071164940257
300.071164943218
300.071164939845
300.07116492731
300.071164920416
300.071164924825
300.071164929752
300.071164932451
300.071164934781
300.071164933386
300.071164932824
300.07116492829
300.07116490788
300.071164917925
300.071164927951
300.071164920311
300.071164919059
300.071164918532
300.071164960099
300.071165219065
300.071166191946
300.07116939702
300.071179279605
300.071208003208
300.071287620077
300.07150103085
300.072064795606
300.073548083074
300.077344063271
300.08605671017
300.104628252521
300.039526613465
300.031807276352
300.028348786504
300.026833756448
300.026241950464
300.02601941998
300.025936369604
300.025905643436
300.025894563621
300.025890732459
300.02588946594
300.02588908094
300.025888993633
300.025888985781
300.02588899154
300.025888999581
300.025889007755
300.025889014548
300.02588901919
300.025889021174
300.025889023312
300.025889022986
300.025889018804
300.025889017634
300.025889020172
300.025889022268
300.025889023544
300.025889024813
300.025889024234
300.02588902358
300.025889021827
300.025889013134
300.025889015821
300.02588901811
300.025889015435
300.025889014793
300.025889011891
300.025889022993
300.02588911599
300.025889482139
300.025890692931
300.0258944167
300.025905219869
300.025935224736
300.026016403316
300.026234811065
300.02682369073
300.028371399979
300.032038896666
300.040573097855
300.014309254373
300.011119687218
300.009786022221
300.009215457691
300.008996527856
300.008915650995
300.008885901097
300.008874970277
300.008871025905
300.008869654361
300.00886919802
300.008869059195
300.008869028825
300.008869027258
300.008869030217
300.008869033915
300.008869037508
300.008869040493
300.008869042646
300.00886904362
300.008869044718
300.008869044847
300.008869043783
300.00886904406
300.008869045145
300.008869045905
300.008869046415
300.008869046932
300.008869046698
300.008869046315
300.008869045623
300.008869042244
300.008869042773
300.008869042982
300.00886904189
300.008869041658
300.008869040255
300.008869042743
300.008869073899
300.008869203736
300.008869634537
300.008870952913
300.008874761298
300.008885331444
300.008914112027
300.008992710879
300.009209062664
300.009791372561
300.011215654562
300.014798104832
300.004902154941
300.00368116978
300.003199872056
300.002998695738
300.002922668684
300.002894989169
300.002884934506
300.002881263317
300.0028799377
300.002879474338
300.002879319354
300.002879272296
300.002879262272
300.002879262084
300.002879263422
300.002879264957
300.002879266392
300.002879267586
300.002879268485
300.002879268988
300.00287926941
300.002879269485
300.002879269359
300.002879269648
300.002879270062
300.002879270324
300.002879270508
300.00287927068
300.002879270588
300.002879270417
300.002879270147
300.002879268923
300.002879268821
300.002879268732
300.002879268393
300.002879268204
300.002879267542
300.002879267979
300.002879278042
300.002879321865
300.002879467554
300.002879910519
300.002881182409
300.002884702519
300.002894323644
300.002920912345
300.002995386061
300.003200220211
300.003717323211
300.005109938429
300.001598465603
300.001160843802
300.00099662793
300.000929548723
300.000904534496
300.00089553553
300.000892301705
300.0008911278
300.000890703764
300.000890554871
300.000890504866
300.00089048973
300.000890486575
300.000890486616
300.000890487158
300.000890487743
300.000890488274
300.000890488717
300.000890489063
300.000890489278
300.00089048945
300.00089048952
300.000890489533
300.000890489661
300.000890489801
300.000890489888
300.00089048995
300.000890489999
300.000890489962
300.000890489896
300.000890489798
300.000890489429
300.000890489356
300.000890489275
300.000890489101
300.000890488941
300.000890488658
300.000890488727
300.000890491872
300.000890506029
300.000890553163
300.000890695438
300.000891101057
300.000892218662
300.000895278074
300.000903809942
300.000928058345
300.000996102709
300.001173377795
300.001680026995
300.000498557126
300.000350463022
300.00029707896
300.000275761258
300.000267906796
300.00026510854
300.000264112125
300.000263752361
300.000263622415
300.000263576618
300.00026356119
300.000263556535
300.000263555583
300.000263555625
300.000263555825
300.000263556032
300.000263556216
300.00026355637
300.000263556494
300.000263556576
300.00026355664
300.000263556675
300.000263556695
300.000263556744
300.000263556788
300.000263556815
300.000263556836
300.000263556846
300.000263556832
300.000263556811
300.000263556776
300.00026355667
300.000263556632
300.00026355659
300.000263556515
300.000263556435
300.000263556328
300.000263556337
300.000263557292
300.000263561695
300.000263576354
300.000263620273
300.000263744532
300.000264084996
300.0002650167
300.000267632
300.000275155857
300.000296670082
300.000354496377
300.000528459157
300.000149374187
300.000101733631
300.000085100428
300.000078603256
300.000076235842
300.000075399105
300.000075103416
300.000074997181
300.000074958828
300.000074945273
300.000074940696
300.000074939318
300.00007493904
300.000074939059
300.000074939127
300.000074939195
300.000074939254
300.000074939304
300.000074939346
300.000074939374
300.000074939396
300.00007493941
300.00007493942
300.000074939436
300.000074939449
300.000074939458
300.000074939464
300.000074939465
300.000074939461
300.000074939455
300.000074939443
300.000074939412
300.000074939397
300.00007493938
300.000074939352
300.00007493932
300.000074939283
300.000074939284
300.000074939568
300.000074940893
300.000074945292
300.000074958375
300.000074995105
300.000075095112
300.000075368275
300.000076138362
300.00007837631
300.000084890946
300.000102945338
300.000159704326
300.000043151257
300.000028500981
300.000023510976
300.000021602515
300.000020914346
300.000020672702
300.000020587837
300.000020557481
300.000020546531
300.000020542651
300.000020541338
300.000020540943
300.000020540862
300.000020540869
300.000020540889
300.000020540909
300.000020540927
300.000020540942
300.000020540954
300.000020540963
300.00002054097
300.000020540974
300.000020540978
300.000020540982
300.000020540986
300.000020540988
300.00002054099
300.00002054099
300.000020540989
300.000020540987
300.000020540983
300.000020540975
300.000020540969
300.000020540964
300.000020540954
300.000020540944
300.000020540933
300.000020540934
300.000020541018
300.000020541406
300.000020542684
300.000020546457
300.000020556969
300.0000205854
300.000020662817
300.000020881597
300.000021522773
300.000023421355
300.00002884195
300.000046538076
300.000012058042
300.000007731188
300.000006284547
300.000005742117
300.000005548455
300.000005480818
300.000005457179
300.000005448756
300.000005445719
300.000005444641
300.000005444274
300.000005444162
300.000005444138
300.000005444138
300.000005444143
300.000005444148
300.000005444152
300.000005444155
300.000005444158
300.00000544416
300.000005444161
300.000005444162
300.000005444163
300.000005444164
300.000005444165
300.000005444165
300.000005444165
300.000005444166
300.000005444165
300.000005444165
300.000005444164
300.000005444162
300.000005444161
300.000005444159
300.000005444157
300.000005444155
300.000005444152
300.000005444154
300.00000544418
300.000005444291
300.000005444653
300.00000544571
300.000005448632
300.000005456478
300.000005477755
300.000005537936
300.000005715561
300.000006250222
300.000007821114
300.000013118001
300.000003268784
300.000002036633
300.000001630158
300.000001480487
300.000001427553
300.00000140915
300.000001402741
300.000001400463
300.000001399641
300.000001399347
300.000001399245
300.000001399213
300.000001399204
300.000001399202
300.000001399202
300.000001399202
300.000001399202
300.000001399202
300.000001399202
300.000001399201
300.000001399201
300.000001399201
300.000001399201
300.0000013992
300.0000013992
300.0000013992
300.0000013992
300.0000013992
300.0000013992
300.0000013992
300.0000013992
300.0000013992
300.0000013992
300.0000013992
300.000001399201
300.000001399201
300.000001399201
300.000001399204
300.000001399213
300.000001399245
300.000001399346
300.000001399636
300.000001400427
300.000001402536
300.000001408222
300.000001424299
300.000001472036
300.000001618014
300.000002058797
300.000003586984
300.000000862064
300.000000522631
300.000000411658
300.000000371445
300.000000357349
300.000000352467
300.00000035077
300.000000350166
300.000000349947
300.000000349867
300.000000349837
300.000000349826
300.000000349822
300.000000349819
300.000000349818
300.000000349816
300.000000349815
300.000000349813
300.000000349812
300.000000349812
300.000000349811
300.00000034981
300.000000349809
300.000000349809
300.000000349808
300.000000349808
300.000000349808
300.000000349808
300.000000349808
300.000000349808
300.000000349809
300.000000349809
300.00000034981
300.000000349811
300.000000349811
300.000000349813
300.000000349814
300.000000349816
300.00000034982
300.000000349831
300.00000034986
300.00000034994
300.000000350151
300.000000350705
300.000000352188
300.000000356371
300.000000368857
300.000000407619
300.000000527689
300.000000954063
300.000000221946
300.00000013125
300.000000101741
300.000000091182
300.00000008751
300.000000086242
300.000000085801
300.000000085642
300.000000085582
300.000000085558
300.000000085548
300.000000085543
300.000000085539
300.000000085537
300.000000085535
300.000000085533
300.000000085531
300.000000085529
300.000000085528
300.000000085527
300.000000085526
300.000000085525
300.000000085524
300.000000085524
300.000000085523
300.000000085523
300.000000085523
300.000000085523
300.000000085523
300.000000085523
300.000000085524
300.000000085524
300.000000085525
300.000000085526
300.000000085527
300.000000085529
300.00000008553
300.000000085532
300.000000085535
300.00000008554
300.00000008555
300.000000085573
300.00000008563
300.000000085775
300.000000086155
300.00000008722
300.000000090413
300.000000100463
300.000000132294
300.000000247649
300.000000056183
300.000000032644
300.000000024978
300.000000022247
300.000000021303
300.000000020977
300.000000020862
300.000000020819
300.000000020801
300.000000020792
300.000000020786
300.000000020782
300.000000020779
300.000000020777
300.000000020774
300.000000020772
300.00000002077
300.000000020769
300.000000020767
300.000000020766
300.000000020765
300.000000020764
300.000000020763
300.000000020763
300.000000020762
300.000000020762
300.000000020762
300.000000020762
300.000000020762
300.000000020762
300.000000020762
300.000000020763
300.000000020764
300.000000020765
300.000000020766
300.000000020768
300.00000002077
300.000000020772
300.000000020774
300.000000020778
300.000000020783
300.000000020791
300.000000020808
300.000000020847
300.000000020945
300.000000021214
300.000000022021
300.000000024588
300.000000032825
300.000000063138
300.000000014302
300.000000008382
300.000000006422
300.000000005709
300.000000005463
300.000000005378
300.000000005346
300.000000005331
300.000000005324
300.000000005318
300.000000005314
300.000000005311
300.000000005308
300.000000005305
300.000000005303
300.000000005301
300.000000005299
300.000000005297
300.000000005295
300.000000005294
300.000000005293
300.000000005292
300.000000005291
300.000000005291
300.00000000529
300.00000000529
300.00000000529
300.00000000529
300.00000000529
300.00000000529
300.000000005291
300.000000005291
300.000000005292
300.000000005293
300.000000005295
300.000000005296
300.000000005298
300.0000000053
300.000000005303
300.000000005306
300.000000005309
300.000000005314
300.000000005321
300.000000005334
300.000000005361
300.000000005431
300.00000000564
300.000000006305
300.000000008397
300.000000016125
300.000000003959
300.00000000254
300.000000002037
300.000000001832
300.00000000176
300.000000001735
300.000000001724
300.000000001717
300.000000001712
300.000000001708
300.000000001704
300.000000001701
300.000000001698
300.000000001695
300.000000001693
300.000000001691
300.000000001689
300.000000001687
300.000000001685
300.000000001684
300.000000001683
300.000000001682
300.000000001681
300.000000001681
300.00000000168
300.00000000168
300.000000001679
300.000000001679
300.00000000168
300.00000000168
300.00000000168
300.000000001681
300.000000001682
300.000000001683
300.000000001684
300.000000001686
300.000000001688
300.00000000169
300.000000001693
300.000000001695
300.000000001699
300.000000001702
300.000000001707
300.000000001713
300.000000001723
300.000000001744
300.000000001808
300.000000001999
300.00000000253
300.000000004418
300.000000001457
300.000000001161
300.000000001021
300.000000000942
300.000000000914
300.000000000904
300.000000000898
300.000000000893
300.000000000888
300.000000000884
300.000000000881
300.000000000877
300.000000000874
300.000000000872
300.000000000869
300.000000000867
300.000000000865
300.000000000863
300.000000000862
300.00000000086
300.000000000859
300.000000000858
300.000000000857
300.000000000857
300.000000000856
300.000000000856
300.000000000856
300.000000000856
300.000000000856
300.000000000856
300.000000000857
300.000000000857
300.000000000858
300.000000000859
300.000000000861
300.000000000862
300.000000000864
300.000000000866
300.000000000869
300.000000000872
300.000000000875
300.000000000878
300.000000000882
300.000000000886
300.000000000892
300.000000000902
300.00000000093
300.000000001007
300.00000000115
300.000000001563
300.000000000864
300.000000000842
300.000000000791
300.000000000742
300.000000000724
300.000000000717
300.000000000713
300.000000000708
300.000000000704
300.0000000007
300.000000000697
300.000000000693
300.00000000069
300.000000000688
300.000000000685
300.000000000683
300.000000000681
300.000000000679
300.000000000678
300.000000000676
300.000000000675
300.000000000674
300.000000000673
300.000000000673
300.000000000672
300.000000000672
300.000000000672
300.000000000672
300.000000000672
300.000000000672
300.000000000673
300.000000000673
300.000000000674
300.000000000675
300.000000000677
300.000000000678
300.00000000068
300.000000000682
300.000000000685
300.000000000688
300.000000000691
300.000000000694
300.000000000698
300.000000000702
300.000000000706
300.000000000713
300.000000000733
300.000000000782
300.000000000831
300.000000000881
300.000000000726
300.000000000769
300.000000000739
300.000000000698
300.000000000683
300.000000000677
300.000000000672
300.000000000668
300.000000000664
300.00000000066
300.000000000657
300.000000000653
300.00000000065
300.000000000648
300.000000000645
300.000000000643
300.000000000641
300.000000000639
300.000000000637
300.000000000636
300.000000000635
300.000000000634
300.000000000633
300.000000000633
300.000000000632
300.000000000632
300.000000000632
300.000000000632
300.000000000632
300.000000000632
300.000000000633
300.000000000633
300.000000000634
300.000000000635
300.000000000637
300.000000000638
300.00000000064
300.000000000642
300.000000000645
300.000000000648
300.000000000651
300.000000000654
300.000000000658
300.000000000661
300.000000000666
300.000000000672
300.00000000069
300.000000000732
300.000000000759
300.000000000721
300.000000000694
300.000000000753
300.000000000728
300.000000000689
300.000000000674
300.000000000668
300.000000000664
300.00000000066
300.000000000656
300.000000000652
300.000000000648
300.000000000645
300.000000000642
300.000000000639
300.000000000637
300.000000000634
300.000000000632
300.000000000631
300.000000000629
300.000000000628
300.000000000626
300.000000000626
300.000000000625
300.000000000624
300.000000000624
300.000000000623
300.000000000623
300.000000000623
300.000000000623
300.000000000624
300.000000000624
300.000000000625
300.000000000626
300.000000000627
300.000000000628
300.00000000063
300.000000000632
300.000000000634
300.000000000636
300.000000000639
300.000000000642
300.000000000646
300.000000000649
300.000000000653
300.000000000657
300.000000000663
300.00000000068
300.000000000722
300.000000000743
300.000000000684
300.000000000687
300.000000000749
300.000000000725
300.000000000687
300.000000000672
300.000000000666
300.000000000662
300.000000000658
300.000000000654
300.00000000065
300.000000000646
300.000000000643
300.00000000064
300.000000000637
300.000000000635
300.000000000632
300.000000000631
300.000000000629
300.000000000627
300.000000000626
300.000000000625
300.000000000624
300.000000000623
300.000000000622
300.000000000622
300.000000000621
300.000000000621
300.000000000621
300.000000000621
300.000000000622
300.000000000622
300.000000000623
300.000000000624
300.000000000625
300.000000000626
300.000000000628
300.00000000063
300.000000000632
300.000000000635
300.000000000637
300.00000000064
300.000000000644
300.000000000647
300.000000000651
300.000000000655
300.000000000661
300.000000000678
300.00000000072
300.000000000739
300.000000000676
300.000000000686
300.000000000749
300.000000000725
300.000000000686
300.000000000671
300.000000000666
300.000000000661
300.000000000657
300.000000000653
300.000000000649
300.000000000646
300.000000000643
300.000000000639
300.000000000637
300.000000000634
300.000000000632
300.00000000063
300.000000000628
300.000000000627
300.000000000625
300.000000000624
300.000000000623
300.000000000622
300.000000000622
300.000000000621
300.000000000621
300.000000000621
300.000000000621
300.000000000621
300.000000000621
300.000000000622
300.000000000623
300.000000000623
300.000000000625
300.000000000626
300.000000000628
300.000000000629
300.000000000632
300.000000000634
300.000000000637
300.00000000064
300.000000000643
300.000000000647
300.000000000651
300.000000000655
300.000000000661
300.000000000678
300.000000000719
300.000000000739
300.000000000675
300.000000000686
300.000000000749
300.000000000725
300.000000000686
300.000000000671
300.000000000665
300.000000000661
300.000000000657
300.000000000653
300.000000000649
300.000000000645
300.000000000642
300.000000000639
300.000000000636
300.000000000634
300.000000000632
300.00000000063
300.000000000628
300.000000000626
300.000000000625
300.000000000624
300.000000000623
300.000000000622
300.000000000622
300.000000000621
300.000000000621
300.000000000621
300.000000000621
300.000000000621
300.000000000621
300.000000000622
300.000000000622
300.000000000623
300.000000000624
300.000000000626
300.000000000627
300.000000000629
300.000000000631
300.000000000634
300.000000000637
300.00000000064
300.000000000643
300.000000000647
300.000000000651
300.000000000655
300.000000000661
300.000000000678
300.00000000072
300.000000000739
300.000000000675
300.000000000687
300.00000000075
300.000000000726
300.000000000686
300.000000000671
300.000000000665
300.000000000661
300.000000000656
300.000000000652
300.000000000648
300.000000000645
300.000000000642
300.000000000639
300.000000000636
300.000000000633
300.000000000631
300.000000000629
300.000000000627
300.000000000626
300.000000000625
300.000000000624
300.000000000623
300.000000000622
300.000000000621
300.000000000621
300.00000000062
300.00000000062
300.00000000062
300.00000000062
300.000000000621
300.000000000621
300.000000000622
300.000000000623
300.000000000624
300.000000000625
300.000000000627
300.000000000629
300.000000000631
300.000000000633
300.000000000636
300.000000000639
300.000000000643
300.000000000646
300.00000000065
300.000000000655
300.000000000661
300.000000000679
300.00000000072
300.00000000074
300.000000000676
300.000000000688
300.000000000751
300.000000000726
300.000000000687
300.000000000671
300.000000000665
300.00000000066
300.000000000656
300.000000000652
300.000000000648
300.000000000644
300.000000000641
300.000000000638
300.000000000635
300.000000000633
300.000000000631
300.000000000629
300.000000000627
300.000000000625
300.000000000624
300.000000000623
300.000000000622
300.000000000621
300.000000000621
300.00000000062
300.00000000062
300.00000000062
300.00000000062
300.00000000062
300.00000000062
300.000000000621
300.000000000622
300.000000000622
300.000000000624
300.000000000625
300.000000000626
300.000000000628
300.000000000631
300.000000000633
300.000000000636
300.000000000639
300.000000000642
300.000000000646
300.00000000065
300.000000000655
300.000000000661
300.000000000679
300.000000000721
300.000000000742
300.000000000677
300.000000000689
300.000000000752
300.000000000727
300.000000000687
300.000000000671
300.000000000665
300.00000000066
300.000000000655
300.000000000651
300.000000000647
300.000000000643
300.00000000064
300.000000000637
300.000000000634
300.000000000632
300.00000000063
300.000000000628
300.000000000626
300.000000000625
300.000000000624
300.000000000622
300.000000000622
300.000000000621
300.00000000062
300.00000000062
300.000000000619
300.000000000619
300.000000000619
300.000000000619
300.00000000062
300.00000000062
300.000000000621
300.000000000622
300.000000000623
300.000000000624
300.000000000626
300.000000000628
300.00000000063
300.000000000632
300.000000000635
300.000000000638
300.000000000642
300.000000000646
300.00000000065
300.000000000654
300.000000000661
300.00000000068
300.000000000722
300.000000000743
300.000000000679
300.000000000691
300.000000000754
300.000000000728
300.000000000687
300.000000000671
300.000000000664
300.000000000659
300.000000000654
300.00000000065
300.000000000646
300.000000000642
300.000000000639
300.000000000636
300.000000000633
300.000000000631
300.000000000629
300.000000000627
300.000000000625
300.000000000624
300.000000000623
300.000000000622
300.000000000621
300.00000000062
300.000000000619
300.000000000619
300.000000000619
300.000000000619
300.000000000619
300.000000000619
300.000000000619
300.00000000062
300.00000000062
300.000000000621
300.000000000622
300.000000000624
300.000000000625
300.000000000627
300.000000000629
300.000000000632
300.000000000634
300.000000000637
300.000000000641
300.000000000645
300.000000000649
300.000000000654
300.000000000661
300.00000000068
300.000000000723
300.000000000745
300.000000000681
300.000000000693
300.000000000756
300.000000000729
300.000000000687
300.00000000067
300.000000000663
300.000000000658
300.000000000653
300.000000000649
300.000000000645
300.000000000641
300.000000000638
300.000000000635
300.000000000632
300.00000000063
300.000000000628
300.000000000626
300.000000000624
300.000000000623
300.000000000622
300.000000000621
300.00000000062
300.000000000619
300.000000000619
300.000000000618
300.000000000618
300.000000000618
300.000000000618
300.000000000618
300.000000000618
300.000000000619
300.000000000619
300.00000000062
300.000000000621
300.000000000623
300.000000000624
300.000000000626
300.000000000628
300.000000000631
300.000000000633
300.000000000637
300.00000000064
300.000000000644
300.000000000649
300.000000000654
300.000000000662
300.000000000681
300.000000000725
300.000000000747
300.000000000683
300.000000000695
300.000000000758
300.00000000073
300.000000000688
300.00000000067
300.000000000663
300.000000000657
300.000000000652
300.000000000647
300.000000000643
300.00000000064
300.000000000636
300.000000000633
300.000000000631
300.000000000629
300.000000000627
300.000000000625
300.000000000623
300.000000000622
300.000000000621
300.00000000062
300.000000000619
300.000000000618
300.000000000618
300.000000000617
300.000000000617
300.000000000617
300.000000000617
300.000000000617
300.000000000617
300.000000000618
300.000000000619
300.000000000619
300.00000000062
300.000000000622
300.000000000623
300.000000000625
300.000000000627
300.000000000629
300.000000000632
300.000000000636
300.000000000639
300.000000000643
300.000000000648
300.000000000654
300.000000000662
300.000000000681
300.000000000726
300.00000000075
300.000000000686
300.000000000699
300.000000000761
300.000000000731
300.000000000688
300.00000000067
300.000000000662
300.000000000656
300.000000000651
300.000000000646
300.000000000642
300.000000000638
300.000000000635
300.000000000632
300.000000000629
300.000000000627
300.000000000625
300.000000000624
300.000000000622
300.000000000621
300.00000000062
300.000000000619
300.000000000618
300.000000000617
300.000000000617
300.000000000616
300.000000000616
300.000000000616
300.000000000616
300.000000000616
300.000000000616
300.000000000617
300.000000000618
300.000000000618
300.000000000619
300.000000000621
300.000000000622
300.000000000624
300.000000000626
300.000000000628