/*--------------------------------*- C++ -*----------------------------------*\
  =========                 |
  \\      /  F ield         | OpenFOAM: The Open Source CFD Toolbox
   \\    /   O peration     | Website:  https://openfoam.org
    \\  /    A nd           | Version:  10
     \\/     M anipulation  |
\*---------------------------------------------------------------------------*/
FoamFile
{
    format      ascii;
    class       volVectorField;
    location    "3.6";
    object      U;
}
// * * * * * * * * * * * * * * * * * * * * * * * * * * * * * * * * * * * * * //

dimensions      [0 1 -1 0 0 0 0];

internalField   nonuniform List<vector> 
2500
(
(-1.63579865986482e-06 -8.95094460467192e-06 1.11452195125884e-24)
(-3.89646576488248e-06 -1.10386775339057e-05 1.12822717103132e-23)
(-2.89386263003415e-06 -1.1438284204653e-05 1.33070689932066e-24)
(-2.01286063380526e-06 -1.1473213034448e-05 6.20239082927745e-25)
(-1.28015668745259e-06 -1.13969545900817e-05 3.1273684717169e-24)
(-8.34526275268581e-07 -1.13261942984356e-05 7.20643330023506e-25)
(-5.77074238612875e-07 -1.12819693922992e-05 2.98230025917374e-25)
(-4.18700795977056e-07 -1.12572775873971e-05 3.80550140321608e-25)
(-3.20672547304372e-07 -1.12453477860687e-05 1.15844541351577e-24)
(-2.5564270730675e-07 -1.12398793122375e-05 1.11261688216568e-23)
(-2.09439395377635e-07 -1.12373685767866e-05 2.15927798208637e-24)
(-1.75087039732169e-07 -1.12361943000259e-05 1.22292877724212e-23)
(-1.48289237356368e-07 -1.12355774739615e-05 6.58797366042299e-24)
(-1.26671907166053e-07 -1.12352144095893e-05 1.67960838379152e-24)
(-1.08761012886085e-07 -1.12349748961928e-05 1.06339427868643e-23)
(-9.36079666541872e-08 -1.12348010564147e-05 1.74308102341325e-24)
(-8.05658260253472e-08 -1.12346856253402e-05 1.18756817763325e-23)
(-6.91811604297129e-08 -1.12346012840845e-05 1.29694015196375e-23)
(-5.91120322796046e-08 -1.12345491997959e-05 2.28869254253578e-24)
(-5.00930804279977e-08 -1.12345140838027e-05 1.12788915045969e-23)
(-4.19116869466813e-08 -1.12345034797976e-05 1.42399203627267e-24)
(-3.43981986471835e-08 -1.12345078976751e-05 8.7118291129364e-25)
(-2.73954317804114e-08 -1.12345207164328e-05 8.27206580506955e-24)
(-2.07716885468789e-08 -1.12345413488064e-05 1.02426260996622e-24)
(-1.44096150376009e-08 -1.1234571708815e-05 8.80920338903032e-25)
(-8.18123729219799e-09 -1.12346049973585e-05 1.08259204783833e-23)
(-1.96488232221984e-09 -1.1234649478236e-05 7.80113758680969e-25)
(4.36479943921144e-09 -1.12346890042966e-05 3.1491576382526e-25)
(1.09462364285035e-08 -1.12347373303314e-05 4.88807743879443e-24)
(1.79278644592594e-08 -1.12347823346754e-05 2.99832475508176e-25)
(2.54787758890802e-08 -1.12348302533804e-05 -1.18201957039005e-25)
(3.38094743920214e-08 -1.12348874783111e-05 -7.77712025379762e-25)
(4.31575215226149e-08 -1.12349489302037e-05 -4.28508382587506e-26)
(5.38045511172825e-08 -1.12350208981527e-05 6.27985537186719e-26)
(6.61362994627852e-08 -1.12351194286857e-05 3.45305521365914e-25)
(8.06591857343742e-08 -1.12352514067933e-05 9.76305926208032e-24)
(9.80616529373054e-08 -1.12354521767824e-05 -9.82511638088848e-24)
(1.19336792282733e-07 -1.12357852303913e-05 -8.65821761186122e-25)
(1.46002689961169e-07 -1.12363871962077e-05 -2.19223491712472e-25)
(1.80478839807811e-07 -1.12375967260815e-05 -4.3733970237404e-24)
(2.27129525877111e-07 -1.12402064196088e-05 -1.15947383433772e-23)
(2.93109615944739e-07 -1.12458549030384e-05 -1.10409383558629e-23)
(3.92472149464508e-07 -1.1257902744655e-05 -3.56762200069472e-24)
(5.53425682372349e-07 -1.12824732219114e-05 -1.10840939490537e-23)
(8.14074303932351e-07 -1.13258544167449e-05 -9.59290356855554e-24)
(1.26647630022193e-06 -1.13957634469361e-05 -4.27740135505279e-24)
(2.01073650932213e-06 -1.14731429372129e-05 -1.07884261684381e-23)
(2.92478394242422e-06 -1.1441780461208e-05 -1.23304907767675e-23)
(3.96619901021263e-06 -1.10266717130653e-05 -3.88129624271312e-24)
(1.67258667303006e-06 -8.91376349669892e-06 -7.46238954948005e-24)
(-9.3413316514065e-07 -1.05226480095924e-05 1.46670460062476e-24)
(-5.96962565169638e-06 -1.36845572072733e-05 3.71780724974943e-24)
(-4.81027070995949e-06 -1.49070616249821e-05 1.97964113023952e-24)
(-3.57303923467355e-06 -1.48200994286396e-05 1.68143315749791e-24)
(-2.45529119724112e-06 -1.44613118083656e-05 9.2546328301726e-24)
(-1.71837226078832e-06 -1.41597646611869e-05 1.06102675414894e-24)
(-1.26350161817714e-06 -1.39745855441859e-05 7.25277234365142e-25)
(-9.61398564497359e-07 -1.38713842510175e-05 7.60842179512941e-25)
(-7.5560614851325e-07 -1.38168248412137e-05 -5.80352015725151e-25)
(-6.06037398999528e-07 -1.37877294203301e-05 2.97851949347846e-24)
(-4.91137442570674e-07 -1.37713125289213e-05 4.5083640487215e-24)
(-4.00017322197704e-07 -1.37612229893188e-05 6.19356611426427e-24)
(-3.25486667055325e-07 -1.37544081394242e-05 2.31297342694803e-24)
(-2.63220454182454e-07 -1.3749436405569e-05 2.63502817250229e-24)
(-2.10312655154042e-07 -1.3745597291222e-05 2.17877924589812e-24)
(-1.64770611842678e-07 -1.37425140598831e-05 1.73880298980623e-24)
(-1.2513846225775e-07 -1.37399845500962e-05 6.03146794237221e-24)
(-9.03355711606771e-08 -1.37378746418502e-05 4.52974388327519e-24)
(-5.95315437510497e-08 -1.37361087619919e-05 2.46623469107668e-24)
(-3.20527290782595e-08 -1.37346113538212e-05 3.41191417089869e-24)
(-7.33697510896543e-09 -1.37333544389007e-05 1.69231650500155e-24)
(1.50965690304082e-08 -1.37323017984384e-05 -1.51308297916499e-24)
(3.56753496686601e-08 -1.37314335000827e-05 5.00615638164186e-24)
(5.47822621011478e-08 -1.37307293870645e-05 1.12169422202877e-24)
(7.27812868821856e-08 -1.37301820174233e-05 -1.21281175355568e-24)
(9.00360855028403e-08 -1.37297928629415e-05 5.1187505870182e-24)
(1.0691662952719e-07 -1.37295484670473e-05 -4.44010838956758e-25)
(1.23789637388209e-07 -1.37294570991094e-05 6.61601633384993e-25)
(1.41047248995066e-07 -1.37295283210559e-05 3.08816497086786e-24)
(1.59122641367593e-07 -1.37297624843474e-05 -1.76558228876286e-24)
(1.78476882248008e-07 -1.37301954278542e-05 1.33335428691659e-24)
(1.99668596040181e-07 -1.3730850780719e-05 -3.70701875841201e-24)
(2.23324162766711e-07 -1.37317637383457e-05 1.93334256559053e-24)
(2.50168812719185e-07 -1.37329967228847e-05 2.19923235153838e-24)
(2.81140110500805e-07 -1.37346526553405e-05 -2.12493286581679e-24)
(3.17416184349559e-07 -1.37368639126487e-05 3.55238581927756e-24)
(3.60536115647852e-07 -1.37398624017537e-05 -4.00485041197061e-24)
(4.12605197711995e-07 -1.37440450126232e-05 -8.40757818368431e-25)
(4.76615772977039e-07 -1.37501556385758e-05 8.94099879031652e-25)
(5.56992978663188e-07 -1.37597188888506e-05 -1.48710673873404e-23)
(6.61062095825989e-07 -1.37758823862185e-05 -6.54494240567215e-24)
(8.00106597432604e-07 -1.38050562019825e-05 -5.31079969674679e-24)
(9.95696670090227e-07 -1.38599844908926e-05 -1.16212745844353e-23)
(1.28957596364071e-06 -1.39637077049558e-05 -5.43926882441143e-24)
(1.73702484950085e-06 -1.41491269308617e-05 -5.97800804876644e-24)
(2.47212007275559e-06 -1.44526619126242e-05 -1.50393781764522e-23)
(3.59563539307845e-06 -1.48211024565846e-05 -5.11747344561489e-24)
(4.88255440681301e-06 -1.4920845813362e-05 -6.3013820095247e-24)
(6.11723759657361e-06 -1.36572942118613e-05 -1.29647639680326e-23)
(1.01832499409977e-06 -1.04089868012793e-05 -4.72053454502168e-24)
(4.35874191754458e-07 1.18824661942968e-06 1.14709734690839e-24)
(-4.41463713025364e-06 1.28522136547909e-07 -7.71091224319947e-24)
(-3.99490346262416e-06 -1.93299195727125e-06 1.66466473709588e-24)
(-3.35797456292913e-06 -2.00677112569112e-06 7.98498038586596e-25)
(-2.5893762144722e-06 -1.61858378949676e-06 -3.33058765157174e-24)
(-1.98625001288e-06 -1.25618502209451e-06 -5.59787891217328e-24)
(-1.56490820603207e-06 -1.02189781127954e-06 6.50144331239537e-25)
(-1.2506053605549e-06 -8.83083612447283e-07 5.15729453293075e-25)
(-1.01588726588309e-06 -8.02393478274399e-07 -9.2251715344812e-24)
(-8.33564614898083e-07 -7.5372898955984e-07 -4.51917445900373e-24)
(-6.87097224801132e-07 -7.22553585793761e-07 9.68607887376574e-24)
(-5.67330734894926e-07 -7.01202020680344e-07 3.90674071628302e-24)
(-4.67378837735078e-07 -6.85670480185786e-07 -6.12061493097334e-24)
(-3.82708112941243e-07 -6.73813959921683e-07 6.06422742247604e-24)
(-3.10041948149586e-07 -6.64429122898906e-07 -5.96514491591866e-24)
(-2.47005886060868e-07 -6.56808141779152e-07 1.39928825292658e-24)
(-1.91814829524165e-07 -6.50496717231108e-07 3.72776041489647e-24)
(-1.43095814285658e-07 -6.45215494669315e-07 -5.32963960443606e-24)
(-9.97591930639881e-08 -6.40767815803703e-07 1.60433842960507e-24)
(-6.09087506561412e-08 -6.37008796439187e-07 -5.19412460469963e-24)
(-2.57900173135868e-08 -6.33849886333401e-07 8.38727366089993e-25)
(6.2463654102946e-09 -6.31209657112461e-07 -7.65608565197748e-24)
(3.57940635896044e-08 -6.29047832035226e-07 2.61926217709411e-24)
(6.33934421362292e-08 -6.27325549610064e-07 7.56868086546216e-25)
(8.9546598378722e-08 -6.26008245195264e-07 -8.04858067231084e-24)
(1.14765019005111e-07 -6.25104597839794e-07 2.6687113360295e-24)
(1.39551323400974e-07 -6.2459017554242e-07 -4.73283837723076e-24)
(1.64414100762437e-07 -6.24491095164774e-07 4.18377275969301e-24)
(1.89897994759986e-07 -6.24817361791362e-07 1.53194699668984e-24)
(2.16583292952765e-07 -6.25603426029627e-07 -8.63647179125578e-24)
(2.45110349923096e-07 -6.26911770117348e-07 6.35985580216274e-24)
(2.76210686411682e-07 -6.28788136868063e-07 -1.06741783205022e-23)
(3.10713542769714e-07 -6.31349279426469e-07 9.27173269134456e-24)
(3.49586995676726e-07 -6.34725531690787e-07 7.66933937296351e-24)
(3.94021614868988e-07 -6.39140341105306e-07 -7.7344553639455e-24)
(4.45489962372441e-07 -6.44892914125543e-07 1.33942609770822e-24)
(5.05878505467506e-07 -6.52443779645803e-07 -2.06920918217837e-24)
(5.77663634810856e-07 -6.62529626207624e-07 -3.61794190762768e-25)
(6.64191022876609e-07 -6.76388973771245e-07 8.95115491582232e-24)
(7.70073716303549e-07 -6.96259518474054e-07 -1.3877464321542e-23)
(9.02294968670168e-07 -7.26264972634558e-07 -4.39634284875035e-24)
(1.07033450256873e-06 -7.74209168990061e-07 -3.2246379896118e-24)
(1.29062128029307e-06 -8.54897231996694e-07 -1.1249606196656e-23)
(1.5920432097334e-06 -9.94937967656094e-07 -3.17790137432923e-24)
(2.00069439121054e-06 -1.23219955987558e-06 -3.93660241260044e-24)
(2.5972171444674e-06 -1.60296231090735e-06 -1.49742023035667e-23)
(3.36782586267759e-06 -2.01335225227055e-06 -3.15498624623514e-24)
(4.04970679775098e-06 -1.96689239350249e-06 -3.64156402396849e-24)
(4.56981197745145e-06 1.45598450262978e-07 -1.45194133801944e-23)
(-3.30144236555987e-07 1.31991556997181e-06 -2.56849037206544e-24)
(-4.28048913312935e-08 7.76243197261546e-06 1.73568403564434e-24)
(-2.35758422980292e-06 7.4545677089358e-06 6.43621766167211e-25)
(-2.59960862112476e-06 4.06201535391824e-06 2.23496515400861e-24)
(-2.59359030437638e-06 3.38314402791366e-06 6.5282433830904e-25)
(-2.29816646057969e-06 3.51559536148209e-06 -9.45990447351918e-25)
(-1.93117101866591e-06 3.79054607479103e-06 3.28194919558699e-25)
(-1.61789935642091e-06 4.01037175025832e-06 8.00891402070767e-25)
(-1.34726216509169e-06 4.15971630989552e-06 9.56478434498151e-25)
(-1.12727501123657e-06 4.25750135979536e-06 -4.66955707244965e-27)
(-9.47498911321674e-07 4.32286770485892e-06 2.6268919457956e-25)
(-7.98743936913711e-07 4.36823138194145e-06 4.19107295581092e-24)
(-6.74883271487949e-07 4.40108356976342e-06 2.87348023310445e-24)
(-5.7030582955736e-07 4.42581912968047e-06 -2.72202169303645e-25)
(-4.8099879871805e-07 4.44508507598792e-06 2.49588610770785e-24)
(-4.03878310644152e-07 4.46051517361595e-06 -5.55109947240129e-25)
(-3.36614932144514e-07 4.47312310027789e-06 2.04256269913279e-24)
(-2.77409751794029e-07 4.48358445844435e-06 3.04964554088334e-24)
(-2.24849815423961e-07 4.49234959929291e-06 1.16459122577738e-24)
(-1.77796602656216e-07 4.49973592136078e-06 2.53330364301418e-24)
(-1.35307016238402e-07 4.50595817178975e-06 2.03641793566663e-25)
(-9.6573173562485e-08 4.51117198315309e-06 1.87545564748083e-24)
(-6.08988192174088e-08 4.51549789743615e-06 -8.57093402520514e-25)
(-2.76573012028093e-08 4.5190310146378e-06 2.20758947570666e-24)
(3.74329524649533e-09 4.52181866344224e-06 1.36972989738405e-24)
(3.38472469621757e-08 4.52390172558032e-06 -6.88944225223444e-25)
(6.31924494122995e-08 4.52529188294187e-06 1.80233390653461e-24)
(9.23217728629119e-08 4.52599355403518e-06 -1.04585007972446e-25)
(1.21778598424858e-07 4.52599340947094e-06 5.38386230351926e-25)
(1.52137797061452e-07 4.52525807456541e-06 9.90221052286519e-25)
(1.84021643981212e-07 4.5237362227362e-06 -1.28764538730751e-24)
(2.18119541600074e-07 4.52133751638297e-06 1.06073499452174e-24)
(2.55187693672098e-07 4.51795115010565e-06 -3.45694167276617e-24)
(2.96097939068503e-07 4.5134144601543e-06 1.44645813229258e-24)
(3.41876042343722e-07 4.50750250920008e-06 1.75432839911404e-24)
(3.93740160933952e-07 4.4998757493794e-06 -1.76349982987819e-24)
(4.53184684538686e-07 4.49006612317276e-06 9.00344049864008e-25)
(5.22090022950128e-07 4.4773883986712e-06 -7.13433905996463e-25)
(6.02862083772719e-07 4.46079492473626e-06 -6.82112264449143e-25)
(6.98622125350657e-07 4.43862685003102e-06 1.8868329783563e-24)
(8.13416256930063e-07 4.4081634599068e-06 -3.39386910057925e-24)
(9.52850353468552e-07 4.36491557694052e-06 -2.04486020480469e-24)
(1.12320623035397e-06 4.30124540701048e-06 -1.42669991741641e-24)
(1.33326798407499e-06 4.20440458543519e-06 -1.36822356069201e-24)
(1.59475852787348e-06 4.05450388597213e-06 -1.19491650446748e-24)
(1.89789833629898e-06 3.83113397518479e-06 -1.50919218032622e-24)
(2.26003845813659e-06 3.54356285815271e-06 -3.03772012411879e-24)
(2.5586709657059e-06 3.37596125672969e-06 -1.1265703269841e-24)
(2.60213072179146e-06 4.0061812272925e-06 -1.35754264928985e-24)
(2.44970069045632e-06 7.46642251753193e-06 -2.38957098956515e-24)
(1.11282051777346e-07 7.86277894090004e-06 6.09892250185915e-25)
(-5.25302157088562e-07 9.76757364131655e-06 1.64534178141645e-24)
(-1.07550163324558e-06 8.93998860401023e-06 5.19226770063294e-24)
(-1.69374191387194e-06 4.80574682309338e-06 2.03033200546381e-24)
(-1.98411989704251e-06 3.68869936824431e-06 4.25146663086472e-25)
(-1.97430179498089e-06 3.6270000405557e-06 -6.79047407207311e-25)
(-1.77193870167343e-06 3.83756733895361e-06 1.33505326611145e-24)
(-1.55168201380672e-06 4.05383989206252e-06 6.86918844324986e-25)
(-1.33220248837321e-06 4.21794154152136e-06 8.67326439327402e-25)
(-1.14097960362554e-06 4.33361091706371e-06 2.1367517370532e-24)
(-9.78232147218795e-07 4.41510523260975e-06 2.71133329231488e-24)
(-8.40216068972714e-07 4.47380107408948e-06 1.28352432537825e-24)
(-7.23488943025966e-07 4.51742715118073e-06 2.72744126069327e-24)
(-6.23891442783753e-07 4.55084635068673e-06 2.68055478414314e-24)
(-5.38183670681352e-07 4.57716061498432e-06 9.0937563868023e-25)
(-4.63722818324545e-07 4.59836018971445e-06 2.66175074951084e-24)
(-3.98433212140639e-07 4.61575310406601e-06 1.84129824056167e-24)
(-3.40665810606795e-07 4.63019736845704e-06 3.09273350591483e-24)
(-2.89096990642399e-07 4.64229157136272e-06 3.44359264395536e-24)
(-2.42648214841938e-07 4.65246021124654e-06 2.34941560543802e-24)
(-2.00412340072434e-07 4.66100165870007e-06 3.26814769366928e-24)
(-1.61608383982925e-07 4.66813852546945e-06 1.87066994057444e-24)
(-1.25557630625205e-07 4.67402092930931e-06 1.77633512288811e-24)
(-9.16483691360033e-08 4.67877947908365e-06 2.49983711847962e-24)
(-5.9312862152716e-08 4.68249037267749e-06 1.25542321962538e-24)
(-2.80143512750569e-08 4.68519878671955e-06 1.74655662795595e-24)
(2.77234572660543e-09 4.68693403959883e-06 2.65392894886673e-24)
(3.35696803372398e-08 4.68769699741501e-06 1.28576473638279e-24)
(6.49105996949841e-08 4.68745961542911e-06 -4.78747990234986e-25)
(9.73563105578219e-08 4.68618821323634e-06 1.50717418804492e-24)
(1.3150718738527e-07 4.68380172215439e-06 8.39085152474338e-25)
(1.68026574663059e-07 4.68018492853253e-06 -7.6459263011702e-25)
(2.0764409161506e-07 4.67516162605528e-06 -6.90447712563419e-25)
(2.51200532830211e-07 4.66853582797075e-06 -9.62466207334275e-25)
(2.99674991255724e-07 4.65997970111844e-06 -8.25710841978225e-25)
(3.54211716294095e-07 4.64905361712473e-06 6.60625415317067e-25)
(4.16197963238093e-07 4.63514817100364e-06 1.47375895269134e-24)
(4.87346471470016e-07 4.61736795780043e-06 -1.08505968727308e-24)
(5.69779509588469e-07 4.59440630994929e-06 -7.17150393292766e-25)
(6.66155412330972e-07 4.5642236593408e-06 -3.09819094706682e-26)
(7.79706023856373e-07 4.52364921748459e-06 1.78806260112e-24)
(9.14511690755687e-07 4.46773374371614e-06 -1.52821143801079e-24)
(1.07403218458896e-06 4.38863214896319e-06 -1.26433912335372e-24)
(1.26136175980601e-06 4.27469318753063e-06 2.76231328975758e-24)
(1.4770623668756e-06 4.11105628473158e-06 -1.07780140679621e-24)
(1.6912231081343e-06 3.89195972810355e-06 -1.20309120709802e-24)
(1.89110035158904e-06 3.66720753899534e-06 2.32246478824673e-24)
(1.90474605388619e-06 3.68489024573763e-06 -1.1165822297281e-24)
(1.64916829099002e-06 4.73812999064619e-06 -1.03219778143765e-24)
(1.094202019142e-06 8.95804255412079e-06 3.31433619348599e-24)
(5.42254490937161e-07 9.86383707320846e-06 -3.50985002817351e-25)
(-5.327529150895e-07 9.30667436839459e-06 1.18119664484329e-24)
(-5.36734059461927e-07 7.77838402286983e-06 5.48703619184317e-24)
(-1.2908705987228e-06 3.57030721142186e-06 1.42513247563729e-24)
(-1.62330957866183e-06 2.29072539739192e-06 3.77246563148538e-25)
(-1.72272817747198e-06 2.1491857782713e-06 1.3617860066092e-24)
(-1.60628296231345e-06 2.33150021258938e-06 2.36297138965646e-24)
(-1.44873425435756e-06 2.55129730648158e-06 5.22954911299326e-25)
(-1.27217269122652e-06 2.72839515117446e-06 6.0445565246978e-25)
(-1.10961596912321e-06 2.85857251117648e-06 2.20279981080418e-24)
(-9.66363268465425e-07 2.95326777969484e-06 3.28374105042064e-24)
(-8.41991245040686e-07 3.02316484190711e-06 -5.92866863925211e-25)
(-7.35079992201762e-07 3.07608801174014e-06 1.69323836107121e-24)
(-6.42782375606565e-07 3.11716946472314e-06 3.2746593324663e-24)
(-5.6266179443263e-07 3.14980975643504e-06 -7.32002443688243e-25)
(-4.92571369899485e-07 3.1762543681673e-06 3.01046100884264e-24)
(-4.30756362445433e-07 3.19801167677961e-06 1.19359282606264e-24)
(-3.75780344047937e-07 3.21609770053996e-06 2.08375225426025e-24)
(-3.26448693678536e-07 3.23123857189793e-06 3.20214022065445e-24)
(-2.81774774033683e-07 3.24394934678491e-06 1.57655535380125e-24)
(-2.40918950923406e-07 3.25459613918382e-06 3.50435892907784e-24)
(-2.03155460665581e-07 3.26345488350097e-06 1.31005985115954e-24)
(-1.6784544192379e-07 3.27072454461441e-06 2.67211340327285e-24)
(-1.3440911540611e-07 3.2765511677587e-06 1.75139195289066e-24)
(-1.02306533784464e-07 3.28103646811725e-06 8.51285483836823e-25)
(-7.10261059693633e-08 3.28424278007045e-06 2.61024632861574e-24)
(-4.00728187325747e-08 3.28620589636783e-06 1.99739844365494e-24)
(-8.95525494492542e-09 3.28692332332778e-06 1.87414812661257e-24)
(2.28386821535339e-08 3.28637277546469e-06 -1.56751572649733e-24)
(5.58400044571528e-08 3.2844912267328e-06 1.07529671703155e-24)
(9.06146358369624e-08 3.28118226385735e-06 1.95271479083405e-24)
(1.27787373733479e-07 3.27629417036227e-06 -1.69993759531366e-24)
(1.68043994214059e-07 3.2696302517527e-06 9.99165382811032e-25)
(2.12166223846522e-07 3.26092369845482e-06 -1.92491219898839e-24)
(2.61055056433324e-07 3.24978935006137e-06 -1.69725782391442e-24)
(3.15760454342068e-07 3.23569154065376e-06 1.86059085449046e-24)
(3.77516818980361e-07 3.21789356944924e-06 1.15377843804857e-24)
(4.47813667082579e-07 3.1953454351048e-06 -8.00518973924231e-25)
(5.28436019535666e-07 3.16654066462134e-06 -5.52449388647304e-25)
(6.21519860904669e-07 3.12919834008571e-06 -1.45552588678685e-24)
(7.2947533812215e-07 3.07984058658013e-06 2.70386757904429e-24)
(8.55021224981749e-07 3.01326395261072e-06 -8.46625778504662e-25)
(9.99517789423299e-07 2.92155093729452e-06 -7.78335585910083e-25)
(1.16261412959596e-06 2.79383169794639e-06 2.65145347747785e-24)
(1.33944190401162e-06 2.61822474277511e-06 -7.01694329979024e-25)
(1.49418161994645e-06 2.39648159441067e-06 -7.24122943241379e-25)
(1.61035363912517e-06 2.19914544916686e-06 3.12318647078314e-24)
(1.51545911438542e-06 2.28970270431191e-06 -7.47699184237716e-25)
(1.21875195075266e-06 3.49685096327401e-06 -7.3002263243074e-25)
(5.06559367930378e-07 7.79820000247418e-06 4.33577762160184e-24)
(5.19189669673487e-07 9.40763500157954e-06 -3.75285517673973e-25)
(-3.11366270104558e-07 8.18873298705805e-06 6.31860644631542e-25)
(-3.86071538892555e-07 6.28152122280955e-06 4.10497041323371e-24)
(-1.12640319959804e-06 2.24503130096989e-06 7.55159319214275e-25)
(-1.40544770883565e-06 9.1963100400076e-07 1.90002987648427e-25)
(-1.5280958255348e-06 7.46569702909712e-07 5.01657447588513e-25)
(-1.45575776198768e-06 9.12572574660907e-07 9.60460670710496e-25)
(-1.34064032515497e-06 1.13355828089395e-06 2.50861068634186e-25)
(-1.19859252384124e-06 1.31843086813126e-06 2.86934580430136e-25)
(-1.06128450105869e-06 1.4585127627073e-06 1.17562119490481e-24)
(-9.36177814984644e-07 1.56305544293643e-06 1.93777991836182e-24)
(-8.24859876394117e-07 1.64186687286288e-06 -1.91376986331994e-25)
(-7.27435030817973e-07 1.70254094680192e-06 1.37449484916273e-24)
(-6.42198794874845e-07 1.75022964726113e-06 2.02479718514075e-24)
(-5.674516480516e-07 1.78846120639278e-06 -8.98568585687879e-26)
(-5.01549697478629e-07 1.81961774204476e-06 1.97590896113486e-24)
(-4.43065291373309e-07 1.84533147099011e-06 6.50384509766835e-25)
(-3.907705709271e-07 1.86674883490323e-06 1.61240411499481e-24)
(-3.43616332040698e-07 1.88468451034729e-06 2.20095720890803e-24)
(-3.00723863955833e-07 1.8997274400347e-06 8.25919361090804e-25)
(-2.61324289385483e-07 1.91230161122653e-06 2.09332243552094e-24)
(-2.24740233574272e-07 1.9227301054984e-06 6.51285633005837e-25)
(-1.90378055929177e-07 1.93124626344532e-06 1.13548544409759e-24)
(-1.57692437130725e-07 1.93802575191301e-06 1.52044575924546e-24)
(-1.2617434855967e-07 1.94318887866496e-06 4.46992430933546e-25)
(-9.53384878480826e-08 1.9468110108414e-06 1.12421033326785e-24)
(-6.47162394426868e-08 1.94892605949039e-06 1.600178021599e-24)
(-3.3839323117313e-08 1.94954195173051e-06 8.42689998523112e-25)
(-2.22480425501077e-09 1.9486252740603e-06 -5.01520960431691e-25)
(3.06310804653919e-08 1.94610180779887e-06 1.10178700599115e-24)
(6.52624562414317e-08 1.94185599268094e-06 7.96630387205284e-25)
(1.02256635362146e-07 1.93571347203906e-06 -5.91987019187145e-25)
(1.42253527193323e-07 1.92744198142004e-06 3.58273822075041e-25)
(1.8597620486356e-07 1.91672683743364e-06 -8.21496376874138e-25)
(2.34248472542538e-07 1.90312530844159e-06 -8.46696554357038e-25)
(2.88002776460743e-07 1.88603185792977e-06 7.52066409517849e-25)
(3.48327117457072e-07 1.86461058070469e-06 1.10900145961345e-24)
(4.16487609182038e-07 1.83770481534865e-06 -9.06381021655429e-25)
(4.9393117978513e-07 1.80367480287673e-06 -3.00572249158512e-25)
(5.82284420645479e-07 1.76011801058368e-06 -5.41292894460059e-25)
(6.83195202365732e-07 1.70343570667794e-06 1.11987103199319e-24)
(7.98220428603931e-07 1.62843693144284e-06 -1.0403137742585e-24)
(9.27165768025702e-07 1.52748395577004e-06 -1.04895518545821e-24)
(1.06765965612473e-06 1.3906511249814e-06 1.13825649420877e-24)
(1.21251880785608e-06 1.20840665441983e-06 -1.04070342611723e-24)
(1.32733029527036e-06 9.86425420010529e-07 -1.03534128992003e-24)
(1.40160226625767e-06 8.04640173346662e-07 1.22314239190048e-24)
(1.28479913738208e-06 9.19660563877533e-07 -1.25722168627383e-24)
(1.04288353047932e-06 2.1653507013246e-06 -1.28410813244951e-24)
(3.34478704497103e-07 6.29311816770763e-06 1.84443812435045e-24)
(2.88074460098084e-07 8.28345459037824e-06 -1.33007722391822e-24)
(-1.10680775305826e-07 7.27425529769314e-06 2.44993149495008e-25)
(-3.62416965853133e-07 5.30485241405935e-06 1.41431676964204e-24)
(-1.01745370802364e-06 1.41589185384537e-06 2.96828373892891e-25)
(-1.24032492545342e-06 5.94977224255534e-08 6.23365882808256e-26)
(-1.3615383448232e-06 -1.40880593725174e-07 -1.60860161840037e-25)
(-1.31781084174253e-06 5.59293859929806e-09 3.66305794499609e-25)
(-1.2343525864453e-06 2.2063022928576e-07 1.03447760090669e-25)
(-1.12090487373978e-06 4.06895110923329e-07 1.17018714754186e-25)
(-1.00559027590151e-06 5.52128559859168e-07 4.79002459737621e-25)
(-8.96825760272754e-07 6.63233585163455e-07 6.81597957413888e-25)
(-7.97480093600068e-07 7.48768417231481e-07 -1.02524919314038e-25)
(-7.08818938556869e-07 8.15714836974184e-07 4.61429763266972e-25)
(-6.30100757770887e-07 8.69014773547268e-07 7.40536467857253e-25)
(-5.60297743371727e-07 9.12138106299365e-07 -2.81082720410223e-26)
(-4.98230330384134e-07 9.47503181090999e-07 7.32565120983504e-25)
(-4.42775144454181e-07 9.76810293985643e-07 2.59354088699514e-25)
(-3.92919167957633e-07 1.00128664925541e-06 5.70825543046275e-25)
(-3.47760258130126e-07 1.02180152652367e-06 8.14148720173425e-25)
(-3.06517982438794e-07 1.03899662902059e-06 3.29575728113106e-25)
(-2.68496313846534e-07 1.05336065341775e-06 7.65721342209471e-25)
(-2.33075919529298e-07 1.06524485494903e-06 2.55755628742136e-25)
(-1.99702623995238e-07 1.07491691366506e-06 4.36135002811005e-25)
(-1.67862551657365e-07 1.08256828311127e-06 4.96307054795331e-25)
(-1.37074987114405e-07 1.0883416972632e-06 1.75383619454727e-25)
(-1.06883112308682e-07 1.0923208265761e-06 4.39363274541708e-25)
(-7.68401809758103e-08 1.09454656260269e-06 5.64703281799146e-25)
(-4.65018483235637e-08 1.09502983536402e-06 3.41615720788376e-25)
(-1.54084910335433e-08 1.09372724013611e-06 -1.80857309620211e-25)
(1.691883883646e-08 1.09056115155495e-06 3.72728548907014e-25)
(5.09842576166702e-08 1.08539080798493e-06 3.05198829920825e-25)
(8.7336713589744e-08 1.07802856207736e-06 -2.10472237029067e-25)
(1.26572939379271e-07 1.06820819091865e-06 1.53618314349558e-25)
(1.69358545386606e-07 1.05558125331211e-06 -3.21537533728038e-25)
(2.1643638481673e-07 1.03964431424307e-06 -3.17543165871248e-25)
(2.68638792365234e-07 1.01974727365899e-06 2.83965145404605e-25)
(3.26902195757528e-07 9.95000474803049e-07 3.63294498183258e-25)
(3.92271426818951e-07 9.64159914883482e-07 -2.8050128214775e-25)
(4.65877927862955e-07 9.2553921102717e-07 -1.15901151981349e-25)
(5.48879178279625e-07 8.76708731757991e-07 -1.87677376826191e-25)
(6.42250961544918e-07 8.14134350700928e-07 8.05208315716971e-25)
(7.46581207580082e-07 7.32873509608493e-07 -3.25547705805581e-25)
(8.60501249194922e-07 6.25955258354102e-07 -3.35947230638518e-25)
(9.80437196411022e-07 4.84785699704517e-07 7.57949107765381e-25)
(1.09821205002761e-06 3.02267410530277e-07 -3.417568522063e-25)
(1.18333403242675e-06 8.71208583603526e-08 -3.33158017243019e-25)
(1.23108104500737e-06 -7.59091465000323e-08 7.6061720704393e-25)
(1.11732632776487e-06 5.97985694943819e-08 -3.70341225756572e-25)
(9.31253743217152e-07 1.32951534504372e-06 -4.09999466486233e-25)
(3.05662130871622e-07 5.30361076749854e-06 1.35255463170236e-24)
(8.71531907599873e-08 7.35139546910731e-06 -3.0001398784754e-25)
(-3.94396013822408e-09 6.7326122262417e-06 1.06339212613757e-25)
(-3.53708266050898e-07 4.86095549802005e-06 7.79139013428955e-25)
(-9.04516402455953e-07 1.03035438129642e-06 1.30156380180396e-25)
(-1.09261876243639e-06 -3.67911526942602e-07 4.81175297254836e-26)
(-1.2097948312194e-06 -6.028568644324e-07 2.85129551932799e-25)
(-1.18895861369828e-06 -4.81185845398327e-07 3.12285310934626e-25)
(-1.13077471852074e-06 -2.78281391352266e-07 6.02925074213465e-26)
(-1.04156229777099e-06 -9.5728125514174e-08 6.57409678925774e-26)
(-9.45558399321202e-07 5.07826069094749e-08 3.42437582716144e-25)
(-8.51597764302409e-07 1.65692820471155e-07 3.74982574879811e-25)
(-7.63358898305808e-07 2.56020135477766e-07 -1.82625070288858e-25)
(-6.82968999221349e-07 3.27912489350381e-07 1.33573652461019e-25)
(-6.10478876485199e-07 3.85889988949119e-07 4.60766557457556e-25)
(-5.45436729728873e-07 4.33242708312025e-07 -1.41473361614076e-25)
(-4.87078751140164e-07 4.7234869865276e-07 3.95924180831949e-25)
(-4.34569236172887e-07 5.04911028261395e-07 1.03976322842896e-25)
(-3.8709730060823e-07 5.32184128058318e-07 1.91219738956651e-25)
(-3.43909352526056e-07 5.55083508303764e-07 4.64906390228318e-25)
(-3.04318323804184e-07 5.74286710572797e-07 1.42782412291567e-25)
(-2.67703084326894e-07 5.90320918591863e-07 4.51090530439255e-25)
(-2.33500033089756e-07 6.03563661644158e-07 1.17960957128066e-25)
(-2.01197799802361e-07 6.14313593526552e-07 3.56614114508498e-25)
(-1.70315561497116e-07 6.22780617987348e-07 1.56806878373907e-25)
(-1.40400626531071e-07 6.2911542722401e-07 7.49228603094605e-26)
(-1.11023137488616e-07 6.33416132670375e-07 3.05341452774336e-25)
(-8.17574379954382e-08 6.35731670394245e-07 1.92313439110127e-25)
(-5.218141816451e-08 6.36068936645342e-07 3.02176044351931e-25)
(-2.18602978185336e-08 6.34387351189588e-07 -2.66145406041487e-25)
(9.65717515006903e-09 6.30588303162498e-07 1.07092219343896e-25)
(4.28474409383615e-08 6.24530146764914e-07 2.40477815423823e-25)
(7.82252034879431e-08 6.15991627938986e-07 -1.93469152340321e-25)
(1.16341750445404e-07 6.04698958592183e-07 2.15767168535037e-25)
(1.57802318079108e-07 5.90256379318583e-07 -3.0209718853821e-25)
(2.03275619534594e-07 5.72142877360713e-07 -2.90850255497859e-25)
(2.5349309162532e-07 5.49660195263222e-07 2.295747187288e-25)
(3.09239650184738e-07 5.21883121697335e-07 1.09946371329882e-25)
(3.71356783293365e-07 4.87546815057244e-07 -7.51054077691915e-26)
(4.40690472798605e-07 4.44957151771716e-07 -4.78171119733935e-26)
(5.17975660345655e-07 3.91739305352202e-07 -2.01746749564711e-25)
(6.03607839575835e-07 3.24569643679726e-07 3.54662106422166e-25)
(6.97397061000956e-07 2.38942944026584e-07 -6.7131484095693e-26)
(7.97128867727295e-07 1.28775988366902e-07 -7.09609128226809e-26)
(8.98526672989344e-07 -1.29268965881871e-08 3.85693553986875e-25)
(9.92990995721208e-07 -1.90783657794829e-07 -7.51452174914651e-26)