/*--------------------------------*- C++ -*----------------------------------*\
  =========                 |
  \\      /  F ield         | OpenFOAM: The Open Source CFD Toolbox
   \\    /   O peration     | Website:  https://openfoam.org
    \\  /    A nd           | Version:  10
     \\/     M anipulation  |
\*---------------------------------------------------------------------------*/
FoamFile
{
    format      ascii;
    class       volScalarField;
    location    "3.6";
    object      wallHeatFlux;
}
// * * * * * * * * * * * * * * * * * * * * * * * * * * * * * * * * * * * * * //

dimensions      [1 0 -3 0 0 0 0];

internalField   uniform 0;

boundaryField
{
    back
    {
        type            calculated;
        value           uniform 0;
    }
    bottom
    {
        type            calculated;
        value           nonuniform List<scalar> 
50
(
168.697883019042
175.012596235803
180.796806683243
183.581617001938
184.747387491871
185.213645585055
185.392779242729
185.45775620301
185.479753779494
185.486842370517
185.488786925576
185.489290295694
185.489398008067
185.489336546656
185.489269722716
185.489160177006
185.489137825829
185.489081948172
185.489011358399
185.488981089365
185.48896077478
185.4889559669
185.488954173246
185.488949582069
185.48893186069
185.48892435046
185.488924764573
185.488924935788
185.488937586439
185.488939526627
185.488953353455
185.488995827894
185.48900037165
185.489001311738
185.489032936528
185.489080935505
185.489128537855
185.48909978123
185.488991724037
185.488291528252
185.485774027644
185.477637435276
185.453227425963
185.384266913986
185.200946263705
184.73355157146
183.57553332408
180.792052530964
174.929501422318
168.729397260218
)
;
    }
    left
    {
        type            calculated;
        value           uniform 0;
    }
    front
    {
        type            calculated;
        value           uniform 0;
    }
    right
    {
        type            calculated;
        value           uniform 0;
    }
    top
    {
        type            calculated;
        value           uniform 0;
    }
}


// ************************************************************************* //
