/*--------------------------------*- C++ -*----------------------------------*\
  =========                 |
  \\      /  F ield         | OpenFOAM: The Open Source CFD Toolbox
   \\    /   O peration     | Website:  https://openfoam.org
    \\  /    A nd           | Version:  10
     \\/     M anipulation  |
\*---------------------------------------------------------------------------*/
FoamFile
{
    format      ascii;
    class       volScalarField;
    location    "4";
    object      alphat;
}
// * * * * * * * * * * * * * * * * * * * * * * * * * * * * * * * * * * * * * //

dimensions      [1 -1 -1 0 0 0 0];

internalField   nonuniform List<scalar> 
2500
(
1.72837938839801e-14
3.3436827963127e-13
1.39836818491577e-12
2.33227930963207e-12
3.02119985167393e-12
3.46742504763239e-12
3.72413383455186e-12
3.85659182153094e-12
3.9184694274415e-12
3.94486934058395e-12
3.95523875559144e-12
3.9590149414786e-12
3.96029739626283e-12
3.96070511159954e-12
3.96082627922797e-12
3.96085936468469e-12
3.96086691905487e-12
3.96086755555518e-12
3.9608666511793e-12
3.96086553186036e-12
3.96086449277169e-12
3.96086359350433e-12
3.96086283775316e-12
3.96086221756611e-12
3.96086173686937e-12
3.96086140273207e-12
3.96086123336709e-12
3.96086123421332e-12
3.96086131252489e-12
3.96086143770232e-12
3.96086169394581e-12
3.96086195048321e-12
3.96086165027365e-12
3.96085846320743e-12
3.96084446132429e-12
3.96079396482052e-12
3.96062605018026e-12
3.96010000643654e-12
3.95854205057654e-12
3.95418988989809e-12
3.94277273964667e-12
3.91480645503572e-12
3.85127016399192e-12
3.71840949852092e-12
3.464862618634e-12
3.02736474461345e-12
2.35141660644462e-12
1.42645218169162e-12
3.4859829027741e-13
1.85930419394405e-14
1.69972877761278e-12
8.63463280963464e-11
3.69051100586495e-10
6.16916982595122e-10
8.01097672339652e-10
9.21575340559549e-10
9.91678662657815e-10
1.0282986460486e-09
1.04562493349975e-09
1.05311271165576e-09
1.0560913849745e-09
1.05718967996183e-09
1.05756722371459e-09
1.05768869360738e-09
1.05772524808032e-09
1.05773538989854e-09
1.05773779033568e-09
1.0577380589661e-09
1.05773783450664e-09
1.05773753669388e-09
1.0577372566143e-09
1.05773701388059e-09
1.05773681006377e-09
1.05773664315803e-09
1.05773651361915e-09
1.05773642384782e-09
1.05773637780805e-09
1.05773637791613e-09
1.05773640184092e-09
1.05773643567489e-09
1.05773650519195e-09
1.05773656941852e-09
1.05773644955742e-09
1.05773543486254e-09
1.05773115668355e-09
1.05771596867437e-09
1.05766599245139e-09
1.05751096580185e-09
1.05705642025685e-09
1.05579975941338e-09
1.05253847281391e-09
1.0446384325534e-09
1.02689367202021e-09
9.90210310322624e-10
9.20988885988443e-10
8.02813313695906e-10
6.21956504699959e-10
3.76302694706416e-10
8.99048507037632e-11
1.82152017818942e-12
5.9925756650684e-12
1.54220776731916e-09
5.15439644042554e-07
8.5764773266355e-07
1.10995726588748e-06
1.27487983560302e-06
1.37120666727302e-06
1.4218711891183e-06
1.4460538242321e-06
1.45660810053274e-06
1.46085043143466e-06
1.46243132583156e-06
1.46298061194935e-06
1.46315927944587e-06
1.46321368888795e-06
1.46322902258234e-06
1.4632327768701e-06
1.46323329710556e-06
1.46323303759919e-06
1.46323265537679e-06
1.46323228849728e-06
1.46323196869876e-06
1.46323169965149e-06
1.46323147923762e-06
1.4632313075868e-06
1.46323118786448e-06
1.46323112456783e-06
1.46323112258765e-06
1.46323115303023e-06
1.46323119497006e-06
1.46323128192709e-06
1.46323135514162e-06
1.46323113945449e-06
1.46322958030511e-06
1.46322324971404e-06
1.46320103180871e-06
1.46312847105451e-06
1.46290489524853e-06
1.46225374907901e-06
1.46046599178572e-06
1.45585962019725e-06
1.44478291362089e-06
1.42008263965335e-06
1.36936114510675e-06
1.27416329718734e-06
1.11212438139152e-06
8.63953004412631e-07
5.24515784288446e-07
1.59846658804751e-09
6.34313266459664e-12
1.05306435415063e-11
2.72921363264523e-09
9.10356250653319e-07
1.50364646276144e-06
1.93660675325834e-06
2.21800123896482e-06
2.38199417285422e-06
2.46827479153134e-06
2.50953928592562e-06
2.52760451768499e-06
2.53489373326821e-06
2.53762189396528e-06
2.53857435913358e-06
2.53888581362502e-06
2.53898124776726e-06
2.53900837484851e-06
2.53901513728198e-06
2.53901616974753e-06
2.53901579003314e-06
2.53901517887082e-06
2.53901458296307e-06
2.53901406059492e-06
2.53901361987957e-06
2.5390132582243e-06
2.53901297510471e-06
2.5390127751623e-06
2.53901266551033e-06
2.53901265461195e-06
2.53901269434883e-06
2.53901276361617e-06
2.53901289863585e-06
2.53901300884204e-06
2.5390126247288e-06
2.53900999081681e-06
2.53899936359984e-06
2.538962016694e-06
2.53883979362423e-06
2.53846233846255e-06
2.53736069071176e-06
2.53433044073905e-06
2.5265106188731e-06
2.50768325581321e-06
2.46565430454086e-06
2.37924577438081e-06
2.21677355578872e-06
1.93934139090472e-06
1.51209624870032e-06
9.22642120496912e-07
2.80520630692799e-09
1.09989953466226e-11
1.48251114742285e-11
3.84512813948519e-09
1.27447956984303e-06
2.09194964044252e-06
2.68375806787818e-06
3.06672823407608e-06
3.28956730559394e-06
3.40685508570876e-06
3.46304758626422e-06
3.48771433888847e-06
3.49770064555002e-06
3.50145275067529e-06
3.50276839425018e-06
3.50320071396923e-06
3.50333395855055e-06
3.50337214874381e-06
3.50338184404956e-06
3.50338346502487e-06
3.50338305124875e-06
3.50338228769457e-06
3.50338152800429e-06
3.50338085718423e-06
3.50338028889146e-06
3.50337982101755e-06
3.50337945233067e-06
3.50337918762523e-06
3.50337903567936e-06
3.50337900540072e-06
3.50337904301923e-06
3.50337913241074e-06
3.50337929246988e-06
3.50337940849868e-06
3.5033788484468e-06
3.50337528990446e-06
3.50336105237126e-06
3.50331098155146e-06
3.503146808752e-06
3.50263864336388e-06
3.50115219049833e-06
3.49705524602943e-06
3.48646447368554e-06
3.46092895196661e-06
3.40385508753992e-06
3.28637242259959e-06
3.06512430365171e-06
2.6863835609393e-06
2.10069835974045e-06
1.28739539510241e-06
3.92685854916509e-09
1.53402638766749e-11
1.86905873865352e-11
4.85075548447695e-09
1.59845407917524e-06
2.6101475892328e-06
3.33799361052623e-06
3.80747480481319e-06
4.08037777817032e-06
4.22409937960038e-06
4.29307273400602e-06
4.32342492169248e-06
4.33575065557097e-06
4.34039817285382e-06
4.34203430819052e-06
4.34257439085021e-06
4.34274177217634e-06
4.3427901320308e-06
4.34280263302585e-06
4.34280490262275e-06
4.34280453851051e-06
4.34280369835377e-06
4.34280284068084e-06
4.34280207614887e-06
4.3428014249738e-06
4.3428008860675e-06
4.3428004580057e-06
4.3428001450071e-06
4.34279995607571e-06
4.3427998978049e-06
4.34279992485563e-06
4.34280002178512e-06
4.34280018200017e-06
4.34280027076873e-06
4.34279952136718e-06
4.34279515858796e-06
4.34277790540922e-06
4.34271726879759e-06
4.34251819303752e-06
4.34190082173118e-06
4.34009143495773e-06
4.33509561219111e-06
4.3221615794853e-06
4.29093703885229e-06
4.22107500984488e-06
4.07712842607547e-06
3.80571967505918e-06
3.34025280335055e-06
2.6182195944632e-06
1.610565748365e-06
4.93025595658804e-09
1.92103578483838e-11
2.20387400337335e-11
5.72475061569981e-09
1.87764066286536e-06
3.05320178268085e-06
3.89485925252529e-06
4.43647439027563e-06
4.75113082670498e-06
4.91695973605827e-06
4.99667163632066e-06
5.03182952648159e-06
5.04614675521975e-06
5.05156263822175e-06
5.05347625352927e-06
5.05411058402131e-06
5.05430819173296e-06
5.05436571911349e-06
5.05438085013082e-06
5.05438380158585e-06
5.05438355796532e-06
5.05438270810806e-06
5.05438181078482e-06
5.05438100185574e-06
5.05438030792868e-06
5.05437972970002e-06
5.05437926592947e-06
5.0543789198283e-06
5.05437869991174e-06
5.05437860958558e-06
5.05437861935131e-06
5.05437870828661e-06
5.05437884403559e-06
5.05437887796151e-06
5.05437792992136e-06
5.05437286625656e-06
5.05435311690677e-06
5.05428383709562e-06
5.05405620317116e-06
5.05334918691027e-06
5.05127368708063e-06
5.04553446084263e-06
5.03065651418215e-06
4.99470109441148e-06
4.91418565135104e-06
4.74816321539701e-06
4.43485748303295e-06
3.89681592505275e-06
3.06028496861608e-06
1.88834749672539e-06
5.79820899387942e-09
2.25404627771113e-11
2.48413906182711e-11
6.45975080475438e-09
2.1112125588526e-06
3.42167699853082e-06
4.35649063650124e-06
4.95705427214711e-06
5.30587679027946e-06
5.48985724785515e-06
5.57842986073885e-06
5.61757744983421e-06
5.63355976999296e-06
5.63962319175279e-06
5.64177271272562e-06
5.64248796933904e-06
5.64271184686804e-06
5.64277748149129e-06
5.64279501979558e-06
5.64279865799716e-06
5.64279859428691e-06
5.64279778854517e-06
5.64279689860428e-06
5.64279608513653e-06
5.64279538119236e-06
5.6427947896579e-06
5.64279430960139e-06
5.64279394312311e-06
5.64279369695175e-06
5.64279357312347e-06
5.6427935580022e-06
5.64279362069369e-06
5.6427937188325e-06
5.64279367543145e-06
5.64279252403159e-06
5.64278685459192e-06
5.64276506593517e-06
5.64268882773108e-06
5.64243822900689e-06
5.64165894132509e-06
5.63936817501147e-06
5.63302563334289e-06
5.61656576630827e-06
5.57675238738207e-06
5.48753664879141e-06
5.30346865668471e-06
4.95588999955678e-06
4.35841806175212e-06
3.42791638316446e-06
2.12049375013442e-06
6.52625954093805e-09
2.53163628934806e-11
2.71135572654315e-11
7.05894260342711e-09
2.30116320605318e-06
3.72007370697895e-06
4.72951202398854e-06
5.37729157409031e-06
5.75354098964678e-06
5.9521501547871e-06
6.04790133632923e-06
6.09030154723975e-06
6.10765104935564e-06
6.11425036651852e-06
6.11659682298937e-06
6.11738030123712e-06
6.11762658866305e-06
6.11769925690763e-06
6.11771894953422e-06
6.11772325443948e-06
6.11772340822601e-06
6.11772268463922e-06
6.11772183639741e-06
6.11772104774492e-06
6.11772035823851e-06
6.11771977298566e-06
6.11771929152572e-06
6.11771891496724e-06
6.11771864804709e-06
6.11771849384363e-06
6.11771844488258e-06
6.11771847054063e-06
6.11771851991515e-06
6.11771838215596e-06
6.11771703058891e-06
6.11771084703615e-06
6.11768741725154e-06
6.11760567210241e-06
6.11733694223815e-06
6.11650048566363e-06
6.11403892766092e-06
6.10721631142001e-06
6.08949456511735e-06
6.04659807534546e-06
5.95042110055685e-06
5.75190507660726e-06
5.37687626545814e-06
4.73178127059062e-06
3.72587447810916e-06
2.30935046675344e-06
7.11944432672358e-09
2.75624457963643e-11
2.89000151942604e-11
7.53299331147454e-09
2.45142877152142e-06
3.95547854984707e-06
5.02341064457377e-06
5.70824092210821e-06
6.10607730156068e-06
6.31625144231898e-06
6.41770930676921e-06
6.46271194769171e-06
6.48116325272302e-06
6.48819787361669e-06
6.49070568859239e-06
6.49154560769103e-06
6.49181065243487e-06
6.49188930556665e-06
6.49191088362649e-06
6.49191581207856e-06
6.49191619981301e-06
6.49191558072274e-06
6.49191479637131e-06
6.49191405197528e-06
6.49191339341703e-06
6.49191282797499e-06
6.49191235572879e-06
6.49191197716684e-06
6.49191169548978e-06
6.49191151350536e-06
6.49191142602421e-06
6.49191141044259e-06
6.49191140630053e-06
6.49191116182192e-06
6.49190961892745e-06
6.49190301301665e-06
6.49187828474173e-06
6.49179226141443e-06
6.49150949505643e-06
6.49062872039986e-06
6.48803441236743e-06
6.48083765449399e-06
6.46213027010878e-06
6.41682163868607e-06
6.31519280611599e-06
6.10535602491167e-06
5.70881573718502e-06
5.02639476234414e-06
3.96133867454247e-06
2.45901373499642e-06
7.589382349822e-09
2.93288109435568e-11
3.02635440242826e-11
7.8972763742578e-09
2.56712061060729e-06
4.13644789773754e-06
5.24922943348296e-06
5.96252930367617e-06
6.37701438798712e-06
6.59615153270849e-06
6.70205805915417e-06
6.74910295122658e-06
6.76842525725837e-06
6.77580674981942e-06
6.7784442608209e-06
6.77932998394099e-06
6.77961042626559e-06
6.77969407064807e-06
6.77971725988404e-06
6.77972275340585e-06
6.77972337705959e-06
6.77972286958731e-06
6.77972216060854e-06
6.77972147125176e-06
6.77972085316656e-06
6.77972031569911e-06
6.7797198595714e-06
6.77971948493158e-06
6.77971919377754e-06
6.77971898798965e-06
6.77971886379877e-06
6.77971880233701e-06
6.77971873354869e-06
6.77971838708255e-06
6.77971668698038e-06
6.77970973184735e-06
6.77968399454691e-06
6.77959471269295e-06
6.77930130365607e-06
6.7783868979295e-06
6.77569161542356e-06
6.76820957327972e-06
6.74874908403264e-06
6.70159461507508e-06
6.59579006289174e-06
6.37727906464733e-06
5.96425570663319e-06
5.25323426851844e-06
4.14283407910375e-06
2.57460889250719e-06
7.95169605878188e-09
3.06802800281763e-11
3.127481695914e-11
8.16940660795432e-09
2.65385761345586e-06
4.27206469310644e-06
5.4184766211188e-06
6.15318985900482e-06
6.580251235026e-06
6.8061949493126e-06
6.91550062184033e-06
6.96411669352186e-06
6.98411412455236e-06
6.99176665949966e-06
6.99450639883807e-06
6.99542857287719e-06
6.99572140730778e-06
6.9958091295476e-06
6.99583366003626e-06
6.99583965511929e-06
6.99584051117551e-06
6.9958401046688e-06
6.99583947367767e-06
6.99583884318944e-06
6.99583826951792e-06
6.99583776390052e-06
6.99583732774885e-06
6.99583696108392e-06
6.99583666503603e-06
6.99583644059535e-06
6.99583628444595e-06
6.99583617798941e-06
6.99583604899456e-06
6.99583561546274e-06
6.99583377799454e-06
6.99582654162957e-06
6.99580003514746e-06
6.99570832250626e-06
6.99540701764075e-06
6.99446765090217e-06
6.9916972680777e-06
6.98400256064947e-06
6.96397958402503e-06
6.91544453215201e-06
6.80651410195055e-06
6.58150736811057e-06
6.15614035631436e-06
5.42370217182747e-06
4.27933615967735e-06
2.66167434580801e-06
8.22377334868519e-09
3.16872535561749e-11
3.20043349261113e-11
8.367209660757e-09
2.71722061641339e-06
4.37117947502723e-06
5.54225267320547e-06
6.2927288413538e-06
6.72909293284797e-06
6.96010024249803e-06
7.07195094808386e-06
7.12175175637878e-06
7.14226216827588e-06
7.15012234192065e-06
7.15294108498178e-06
7.15389169977095e-06
7.15419431091134e-06
7.15428529707355e-06
7.15431092055238e-06
7.15431734314651e-06
7.1543183987063e-06
7.1543180986014e-06
7.1543175426728e-06
7.15431696986505e-06
7.15431644049555e-06
7.15431596746794e-06
7.15431555286316e-06
7.15431519671931e-06
7.15431489959855e-06
7.15431466173375e-06
7.15431447974428e-06
7.1543143352118e-06
7.15431415424824e-06
7.15431364640601e-06
7.15431169503421e-06
7.15430423790881e-06
7.15427715715532e-06
7.15418367005944e-06
7.15387663700557e-06
7.1529191610309e-06
7.15009418971445e-06
7.14224457013489e-06
7.12181110665079e-06
7.07226717982628e-06
6.96105055053874e-06
6.73129110844401e-06
6.29689197896183e-06
5.54878278043176e-06
4.37955582988976e-06
2.72566410190567e-06
8.42295870106105e-09
3.24186350683741e-11
3.25167493635328e-11
8.50724249327174e-09
2.76235499646798e-06
4.44186437008956e-06
5.63062499479518e-06
6.39245785139206e-06
6.83556013805588e-06
7.07025745196563e-06
7.18397530371996e-06
7.23465165359739e-06
7.25554414504231e-06
7.26356026411953e-06
7.26643886951521e-06
7.26741124176506e-06
7.26772141450624e-06
7.26781496045218e-06
7.26784145932794e-06
7.26784823150679e-06
7.26784945928041e-06
7.26784925599529e-06
7.26784876864552e-06
7.2678482491313e-06
7.26784776130928e-06
7.26784731951909e-06
7.26784692645369e-06
7.26784658225137e-06
7.26784628712657e-06
7.26784604073405e-06
7.26784583941189e-06
7.26784566467698e-06
7.26784544140084e-06
7.26784487351324e-06
7.26784283157431e-06
7.26783520602363e-06
7.267807706051e-06
7.26771295225324e-06
7.26740185719672e-06
7.26643154223194e-06
7.26356780153749e-06
7.25560793657166e-06
7.23488182477321e-06
7.1846176789648e-06
7.07176754419487e-06
6.8386106677907e-06
6.39775378212003e-06
5.63843882269192e-06
4.45142787380109e-06
2.7715887751907e-06
8.56525609354475e-09
3.29369901359786e-11
3.28675773729495e-11
8.60389389601238e-09
2.79372845730388e-06
4.49108716440368e-06
5.69225873352399e-06
6.46210134694711e-06
6.90998359883311e-06
7.14731537787556e-06
7.26237562592817e-06
7.31368620503625e-06
7.33485769327006e-06
7.34298865172713e-06
7.34591173615131e-06
7.34690043080327e-06
7.34721633808522e-06
7.34731185154063e-06
7.34733903726237e-06
7.34734608814671e-06
7.34734745819216e-06
7.34734734059842e-06
7.34734691364191e-06
7.34734644137984e-06
7.34734599092694e-06
7.34734557785127e-06
7.34734520537215e-06
7.34734487376452e-06
7.34734458304599e-06
7.34734433246405e-06
7.34734411802506e-06
7.34734392103108e-06
7.34734366541081e-06
7.34734305143365e-06
7.34734094048365e-06
7.3473331903808e-06
7.34730539171264e-06
7.34720975421705e-06
7.3468958441543e-06
7.34591663451227e-06
7.34302599032405e-06
7.33498946996366e-06
7.31405951835148e-06
7.26329303699135e-06
7.14930250690621e-06
6.9137724163354e-06
6.46840303842154e-06
5.70125548135144e-06
4.501807103393e-06
2.80379894247323e-06
8.6645540282186e-09
3.32958457095453e-11
3.31019616944187e-11
8.66899903671925e-09
2.81502773202581e-06
4.52458186739786e-06
5.73427693587909e-06
6.50965168283608e-06
6.96085585536889e-06
7.20003087608989e-06
7.31603719149033e-06
7.3677982232286e-06
7.38916949317854e-06
7.39738339512065e-06
7.40033889673927e-06
7.40133960298208e-06
7.40165977610766e-06
7.40175677246239e-06
7.40178448538988e-06
7.40179175346701e-06
7.40179323936606e-06
7.40179319491878e-06
7.40179281949699e-06
7.40179238791669e-06
7.40179197015199e-06
7.40179158278886e-06
7.40179122948157e-06
7.40179091064159e-06
7.40179062619086e-06
7.40179037509561e-06
7.4017901530722e-06
7.40178994114999e-06
7.40178966254616e-06
7.40178901515464e-06
7.40178685401501e-06
7.40177901495558e-06
7.40175100901338e-06
7.40165476944053e-06
7.40133895308182e-06
7.4003537213701e-06
7.39744483210596e-06
7.38935622367139e-06
7.36828751682295e-06
7.31717861506064e-06
7.20240993218005e-06
6.96525931167761e-06
6.51680699192282e-06
5.74430544083006e-06
4.53634897446588e-06
2.82589467428573e-06
8.73230534530489e-09
3.35387696179701e-11
3.32549258993692e-11
8.71184336430015e-09
2.82916248227476e-06
4.54687098877565e-06
5.762298358338e-06
6.54141656483142e-06
6.99488342470266e-06
7.23532281820433e-06
7.35198297981337e-06
7.40405781331399e-06
7.42556942651272e-06
7.43384210648294e-06
7.43682079193376e-06
7.4378301725996e-06
7.43815345999097e-06
7.43825155329635e-06
7.43827966334684e-06
7.43828709830345e-06
7.43828867649948e-06
7.43828869237484e-06
7.43828835989586e-06
7.43828796269696e-06
7.43828757308893e-06
7.43828720846042e-06
7.43828687280816e-06
7.4382865666675e-06
7.43828628991317e-06
7.43828604133717e-06
7.43828581641761e-06
7.43828559592801e-06
7.43828530255696e-06
7.43828463266035e-06
7.43828243703102e-06
7.43827453701442e-06
7.43824639146291e-06
7.43814975174082e-06
7.43783267414706e-06
7.43684345723324e-06
7.43392247221721e-06
7.42579926105609e-06
7.4046382100284e-06
7.35330108575075e-06
7.23801317567273e-06
6.99978029926265e-06
6.54926755712132e-06
5.77318507185993e-06
4.5595323706692e-06
2.84073201275484e-06
8.77754835828246e-09
3.36997291520631e-11
3.33525412472773e-11
8.73941496663567e-09
2.83833940740202e-06
4.56138719743055e-06
5.78059192364127e-06
6.56219322450354e-06
7.01717139097438e-06
7.25846150393228e-06
7.37556502122716e-06
7.42785437719119e-06
7.44946275404481e-06
7.45777632186409e-06
7.4607712850287e-06
7.46178681644156e-06
7.46211233649945e-06
7.46221122702579e-06
7.46223963148862e-06
7.46224719312175e-06
7.46224884353514e-06
7.46224890805757e-06
7.46224861086756e-06
7.46224824249359e-06
7.46224787702869e-06
7.46224753247125e-06
7.4622472130688e-06
7.46224691945876e-06
7.46224665149993e-06
7.46224640787352e-06
7.46224618388439e-06
7.46224596009367e-06
7.46224565880134e-06
7.46224497537764e-06
7.46224275785664e-06
7.46223481827107e-06
7.46220658201247e-06
7.46210968345151e-06
7.46179179108379e-06
7.46079999632376e-06
7.45787116993395e-06
7.44972547685148e-06
7.42850431188889e-06
7.3770183827663e-06
7.26139149230563e-06
7.02245130876204e-06
6.57059069066283e-06
5.79216327831888e-06
4.57477570041185e-06
2.85049296642274e-06
8.80714507062863e-09
3.38042190310008e-11
3.34135081300176e-11
8.75678035697979e-09
2.84417268807548e-06
4.57064607993391e-06
5.79229108070849e-06
6.57550781002269e-06
7.031476361323e-06
7.27332822630909e-06
7.39072685084746e-06
7.4431601956844e-06
7.46483408827981e-06
7.47317559112248e-06
7.47618178055e-06
7.47720159666327e-06
7.4775286897524e-06
7.47762815016433e-06
7.47765676978157e-06
7.47766442657411e-06
7.47766613307338e-06
7.47766623662282e-06
7.47766596844727e-06
7.47766562432565e-06
7.47766527969879e-06
7.47766495301128e-06
7.47766464868915e-06
7.4776643674452e-06
7.47766410914166e-06
7.47766387239361e-06
7.47766365238046e-06
7.47766342950243e-06
7.47766312578758e-06
7.47766243597628e-06
7.47766020636678e-06
7.47765224315932e-06
7.47762395079692e-06
7.47752689011646e-06
7.47720848475947e-06
7.4762150610556e-06
7.4732812642698e-06
7.46512128264659e-06
7.44386182707258e-06
7.39228094161414e-06
7.27643741363912e-06
7.03704461590545e-06
6.58432043050643e-06
5.80438871390945e-06
4.58460139629665e-06
2.856788644054e-06
8.82612767382515e-09
3.38707337818038e-11
3.34507941751297e-11
8.76749000060344e-09
2.84780446801698e-06
4.57643219611734e-06
5.7996233241826e-06
6.58387121991261e-06
7.0404768023644e-06
7.2826928690588e-06
7.40028440595607e-06
7.45281268772686e-06
7.47453016266298e-06
7.48289041997791e-06
7.48590421873843e-06
7.48692696900444e-06
7.48725515214831e-06
7.48735501375471e-06
7.4873837885472e-06
7.48739151613267e-06
7.48739326618932e-06
7.48739340153737e-06
7.48739315751115e-06
7.48739283404739e-06
7.48739250765825e-06
7.48739219711688e-06
7.48739190696524e-06
7.48739163796718e-06
7.48739138999904e-06
7.48739116163789e-06
7.48739094798364e-06
7.48739072931422e-06
7.48739042747261e-06
7.4873897368093e-06
7.48738750256706e-06
7.48737952741355e-06
7.48735120304355e-06
7.48725404524576e-06
7.486935326744e-06
7.48594090001591e-06
7.48300402670583e-06
7.47483516791455e-06
7.45355185482734e-06
7.40191166984078e-06
7.28593259769224e-06
7.04625614682657e-06
6.59298992670539e-06
5.81211247189363e-06
4.59081359818276e-06
2.86077191713016e-06
8.83807191594843e-09
3.39122804809112e-11
3.34731132087975e-11
8.77395430740611e-09
2.85001804415419e-06
4.57997328410414e-06
5.80412488719936e-06
6.58901850367727e-06
7.04602624530045e-06
7.28847415687901e-06
7.40618956005189e-06
7.45877934425587e-06
7.48052531220795e-06
7.48889794657868e-06
7.49191681651021e-06
7.49294154301479e-06
7.49327046968834e-06
7.49337060984167e-06
7.49339949534901e-06
7.49340727524048e-06
7.49340905944734e-06
7.49340922121428e-06
7.49340899762218e-06
7.49340869207171e-06
7.49340838194574e-06
7.49340808625751e-06
7.4934078096104e-06
7.49340755280177e-06
7.49340731572991e-06
7.4934070969558e-06
7.49340689152505e-06
7.49340667963288e-06
7.49340638299678e-06
7.49340569573877e-06
7.49340346249747e-06
7.49339548390951e-06
7.49336714423338e-06
7.49326993260558e-06
7.49295103149273e-06
7.4919560078093e-06
7.48901728450989e-06
7.48084305323877e-06
7.45954523564304e-06
7.40786887373259e-06
7.29180688102385e-06
7.05195649608162e-06
6.59835719482379e-06
5.8168973409466e-06
4.59466542760958e-06
2.86324393700264e-06
8.8454454640099e-09
3.39377485074427e-11
3.34861439347269e-11
8.77775981643429e-09
2.85133436829688e-06
4.5820888496214e-06
5.80682406342426e-06
6.59211356471146e-06
7.04937008060539e-06
7.29196271817782e-06
7.40975616385667e-06
7.4623850689685e-06
7.48414933632493e-06
7.49252999802356e-06
7.49555219048114e-06
7.49657822617223e-06
7.49690765219882e-06
7.4970079832565e-06
7.49703694708475e-06
7.49704476550523e-06
7.49704657676627e-06
7.49704676076532e-06
7.49704655466179e-06
7.49704626489835e-06
7.49704596952083e-06
7.49704568770487e-06
7.49704542407195e-06
7.49704517944077e-06
7.49704495373282e-06
7.49704474551179e-06
7.49704454978797e-06
7.49704434669778e-06
7.49704405788235e-06
7.49704337734006e-06
7.49704114940999e-06
7.49703317369278e-06
7.49700483047125e-06
7.49690759409868e-06
7.49658859574462e-06
7.49559323735818e-06
7.49265345164324e-06
7.48447609189135e-06
7.4631697493616e-06
7.41147198136102e-06
7.29536067164937e-06
7.05540641229614e-06
6.60160749273911e-06
5.81979746935673e-06
4.59700271942116e-06
2.86474581560714e-06
8.84990408877011e-09
3.39530487095599e-11
3.34934658841874e-11
8.77991616820951e-09
2.85208845502814e-06
4.58330808523994e-06
5.80838699622092e-06
6.5939122624467e-06
7.05131856397272e-06
7.29399929628142e-06
7.41184077045295e-06
7.46449402196581e-06
7.48626980161408e-06
7.49465556805555e-06
7.49767989674764e-06
7.49870678428845e-06
7.4990365401761e-06
7.49913700032728e-06
7.4991660191233e-06
7.49917386585058e-06
7.49917569876914e-06
7.49917590164109e-06
7.49917571048535e-06
7.49917543479746e-06
7.49917515296087e-06
7.49917488424511e-06
7.49917463325512e-06
7.49917440082048e-06
7.49917418689133e-06
7.49917399004e-06
7.49917380525537e-06
7.49917361263645e-06
7.49917333377825e-06
7.49917266263192e-06
7.49917044345566e-06
7.49916247551146e-06
7.49913413746321e-06
7.4990368968014e-06
7.49871785899169e-06
7.49772233931544e-06
7.49478200448667e-06
7.48660296483614e-06
7.46529193173698e-06
7.41358218446338e-06
7.29744293162465e-06
7.05742925798496e-06
6.60351529833175e-06
5.82150219085137e-06
4.5983791413552e-06
2.86563212171117e-06
8.85252649866022e-09
3.39620011334475e-11
3.34972344019292e-11
8.78103678665837e-09
2.85248599902505e-06
4.58395753471445e-06
5.80922636172544e-06
6.5948842755062e-06
7.05237630414858e-06
7.29510829729462e-06
7.41297817318752e-06
7.46564605870394e-06
7.48742885718493e-06
7.49581777901009e-06
7.49884344624828e-06
7.49987087513774e-06
7.50020084432084e-06
7.50030139023464e-06
7.50033044714362e-06
7.50033831447528e-06
7.50034016506926e-06
7.50034038414103e-06
7.50034020529349e-06
7.500339942198e-06
7.5003396728707e-06
7.50033941659484e-06
7.50033917793514e-06
7.50033895772863e-06
7.50033875595599e-06
7.50033857119839e-06
7.50033839843306e-06
7.5003382177294e-06
7.50033795066259e-06
7.50033729119725e-06
7.50033508368757e-06
7.50032712761616e-06
7.5002988018372e-06
7.50020157282366e-06
7.49988253859456e-06
7.49888698202428e-06
7.49594645562539e-06
7.48776672234244e-06
7.46645356344131e-06
7.41473805647666e-06
7.29858481467889e-06
7.05854052255729e-06
6.6045659806753e-06
5.82244410198558e-06
4.59914275272217e-06
2.86612618267489e-06
8.85398940607809e-09
3.39669887929249e-11
3.3498635226787e-11
8.78146199134464e-09
2.85264237755443e-06
4.58422164934372e-06
5.80957655702489e-06
6.59529763896774e-06
7.0528323243327e-06
7.29559085426815e-06
7.41347597356465e-06
7.46615200054828e-06
7.48793880927049e-06
7.49632958258446e-06
7.49935605703783e-06
7.50038382292258e-06
7.50071393118749e-06
7.50081453762602e-06
7.5008436248863e-06
7.5008515106798e-06
7.50085338004396e-06
7.5008536164157e-06
7.50085344829009e-06
7.5008531981642e-06
7.50085294172474e-06
7.50085269816795e-06
7.50085247202295e-06
7.50085226414847e-06
7.50085207454653e-06
7.50085190180362e-06
7.50085174087324e-06
7.50085157179288e-06
7.50085131610799e-06
7.50085066783027e-06
7.50084847154964e-06
7.50084052747673e-06
7.50081221632271e-06
7.50071500872438e-06
7.50039601070293e-06
7.49940051649907e-06
7.49646008166564e-06
7.48828041599862e-06
7.4669670552359e-06
7.41525033366693e-06
7.29909307629372e-06
7.05903837799099e-06
6.60504093175979e-06
5.82287478467845e-06
4.59949673581663e-06
2.86635893845439e-06
8.85468982135204e-09
3.39694055751893e-11
3.34981423555331e-11
8.78132985072782e-09
2.85260630700872e-06
4.58418037779042e-06
5.8095409152614e-06
6.59527198152855e-06
7.05281676117647e-06
7.29558337383426e-06
7.41347403711281e-06
7.46615343440695e-06
7.48794208942638e-06
7.49633379658836e-06
7.49936071294628e-06
7.50038868079637e-06
7.50071888337621e-06
7.50081953881757e-06
7.50084865626239e-06
7.50085656330425e-06
7.50085845410065e-06
7.50085870946021e-06
7.50085855749879e-06
7.50085832265001e-06
7.50085808078465e-06
7.5008578510551e-06
7.50085763800088e-06
7.50085744251665e-06
7.50085726461943e-06
7.50085710288598e-06
7.50085695222604e-06
7.50085679261044e-06
7.50085654553364e-06
7.50085590505278e-06
7.50085371613965e-06
7.50084578031337e-06
7.50081748204928e-06
7.50072030192264e-06
7.50040137042822e-06
7.49940603753913e-06
7.49646597475477e-06
7.48828710848646e-06
7.46697532853039e-06
7.41526145198878e-06
7.29910879234815e-06
7.05906063772733e-06
6.60507110692327e-06
5.82291237476124e-06
4.59953763094306e-06
2.86639352097632e-06
8.85482229647253e-09
3.39699449810045e-11
3.34956528307723e-11
8.7806154167537e-09
2.85237158792344e-06
4.58382689555044e-06
5.80911381254303e-06
6.5948035217489e-06
7.0523276567404e-06
7.29508536408476e-06
7.41297288348199e-06
7.46565148778488e-06
7.4874401675201e-06
7.49583205349061e-06
7.49885911735162e-06
7.49988717914017e-06
7.50021743912516e-06
7.50031813237625e-06
7.5003472776621e-06
7.50035520622053e-06
7.50035711798278e-06
7.50035739377901e-06
7.50035725949898e-06
7.500357040631e-06
7.50035681379748e-06
7.50035659814144e-06
7.50035639824343e-06
7.50035621504462e-06
7.50035604857119e-06
7.50035589737766e-06
7.50035575631708e-06
7.50035560528106e-06
7.50035536570103e-06
7.50035473173528e-06
7.50035254898262e-06
7.50034462112749e-06
7.50031633905805e-06
7.50021920103636e-06
7.49990038342148e-06
7.49890534775909e-06
7.49596601878986e-06
7.48778885575903e-06
7.46648077905971e-06
7.41477441964915e-06
7.29863595870761e-06
7.05861268748775e-06
6.604663528629e-06
5.8225653477778e-06
4.59927444807096e-06
2.86623720367206e-06
8.85441313834303e-09
3.39687044731964e-11
3.34905139066e-11
8.77913312376525e-09
2.85187669468447e-06
4.58306676835181e-06
5.80817974182011e-06
6.59376434641293e-06
7.05123051645656e-06
7.29395923062197e-06
7.41183365236291e-06
7.46450692506146e-06
7.48629368462067e-06
7.49468497254606e-06
7.49771189090125e-06
7.49873994095684e-06
7.49907022113153e-06
7.49917093888854e-06
7.49920010689057e-06
7.49920805468874e-06
7.49920998533584e-06
7.49921028015546e-06
7.49921016269666e-06
7.49920995898903e-06
7.49920974650568e-06
7.49920954437555e-06
7.49920935723208e-06
7.49920918606642e-06
7.49920903091066e-06
7.49920889030082e-06
7.49920875903246e-06
7.49920861691799e-06
7.4992083853486e-06
7.49920775869285e-06
7.49920558357878e-06
7.49919766713512e-06
7.49916941055121e-06
7.49907234097501e-06
7.49875371130347e-06
7.49775917396089e-06
7.49482109980387e-06
7.48664691912232e-06
7.46534550562512e-06
7.41365308725361e-06
7.29754183878447e-06
7.0575679569538e-06
6.60370193156712e-06
5.82173334543015e-06
4.59862951664996e-06
2.86584251695435e-06
8.85333052374247e-09
3.39652761974386e-11
3.34813206543098e-11
8.77648766236113e-09
2.85099218313619e-06
4.58169963504715e-06