/*--------------------------------*- C++ -*----------------------------------*\
  =========                 |
  \\      /  F ield         | OpenFOAM: The Open Source CFD Toolbox
   \\    /   O peration     | Website:  https://openfoam.org
    \\  /    A nd           | Version:  10
     \\/     M anipulation  |
\*---------------------------------------------------------------------------*/
FoamFile
{
    format      ascii;
    class       volScalarField;
    location    "4";
    object      h;
}
// * * * * * * * * * * * * * * * * * * * * * * * * * * * * * * * * * * * * * //

dimensions      [0 2 -2 0 0 0 0];

internalField   nonuniform List<scalar> 
2500
(
6844.04615530667
6824.30457119614
6803.73330585078
6792.96292799109
6788.08606016827
6785.98225732959
6785.11009833312
6784.76505061132
6784.63528183355
6784.5895819457
6784.572886591
6784.56687829757
6784.56460711148
6784.56305142935
6784.56183499026
6784.56059121618
6784.55993414088
6784.55914662344
6784.55826018362
6784.5576298578
6784.55706699294
6784.55654830714
6784.55610742632
6784.55585735403
6784.55559600284
6784.55533268254
6784.55523351021
6784.55515883151
6784.55512432671
6784.55519947261
6784.55532679175
6784.55555711345
6784.55592609593
6784.55640250308
6784.55688482833
6784.55744417132
6784.5581938197
6784.55922516495
6784.56198016381
6784.56849149536
6784.5865798778
6784.63733151197
6784.77524010843
6785.13260148028
6786.01745521269
6788.11426359639
6792.95566021164
6803.73355004625
6824.56838323157
6843.90473468236
5395.75693534371
5327.51234194343
5270.06206268589
5238.82998830323
5223.57850620925
5216.47310314737
5213.30967799253
5211.97926273026
5211.45447401656
5211.26082896806
5211.19312343008
5211.17071594499
5211.16365361473
5211.16118021325
5211.16009177049
5211.15936551779
5211.15897955566
5211.15856664654
5211.15810141997
5211.15773286433
5211.15736619115
5211.15697743101
5211.15662883759
5211.15644085748
5211.15628710541
5211.15610778451
5211.15604032361
5211.15598241963
5211.15588739651
5211.15593048998
5211.15598120055
5211.15601448014
5211.15635266077
5211.15681226939
5211.15711478557
5211.15752259886
5211.15854329804
5211.16134296237
5211.17008464082
5211.19621130859
5211.27228648614
5211.48320312721
5212.03571489129
5213.39987314476
5216.58055455821
5223.64038288178
5238.77752374978
5270.08301950487
5328.47168040248
5395.89525335825
4094.98239241756
4002.99972027965
3932.56067023329
3894.73024918157
3876.31010561315
3867.73382011847
3863.90803743683
3862.29199374556
3861.65086818226
3861.41263739845
3861.3292794448
3861.30183530384
3861.29339339927
3861.29080531732
3861.28995440359
3861.28958912847
3861.28943894176
3861.28929200233
3861.28910910733
3861.28894752297
3861.2887553661
3861.28851139043
3861.28827124478
3861.28814147075
3861.28806274803
3861.28795503123
3861.28792306727
3861.28788940856
3861.28778362518
3861.28778422343
3861.28778398123
3861.28773650156
3861.28801397883
3861.28839222958
3861.28851640762
3861.28874104184
3861.28973649277
3861.29293504859
3861.30318078157
3861.33460796662
3861.42669434479
3861.68219114879
3862.35058955125
3863.99819213453
3867.83602560014
3876.36313496339
3894.69356563202
3932.75344248401
4004.67982249352
4097.34710608245
3129.29146176234
3044.32106479502
2986.60296037762
2956.68397135936
2942.69500771078
2936.42409331229
2933.70824486775
2932.58424112174
2932.14416780412
2931.98194187284
2931.92548483871
2931.90701532859
2931.90143586755
2931.89981416156
2931.89934908817
2931.89921920623
2931.8992123695
2931.89920278694
2931.89916873021
2931.89912219586
2931.89904579484
2931.89891762475
2931.89877162014
2931.89868681712
2931.89865279961
2931.89860055542
2931.89858823442
2931.89857755516
2931.89852015503
2931.8985158263
2931.89850416115
2931.89843033218
2931.89859026807
2931.89881134857
2931.89884852299
2931.89893233201
2931.89946470171
2931.90142591681
2931.90794002432
2931.92833107396
2931.98899091464
2932.15978512419
2932.61373472743
2933.75438492634
2936.47788653487
2942.72930564439
2956.71281262045
2986.97192491245
3046.24648134201
3133.42910017681
2513.9447235238
2451.91716315516
2413.97434261363
2394.9863841935
2386.44038694543
2382.74335783598
2381.18502236461
2380.5510033391
2380.30498639868
2380.21459235625
2380.18312554404
2380.17283788168
2380.16976401594
2380.16890035668
2380.16871601441
2380.16871393065
2380.16873368187
2380.16875739934
2380.1687656265
2380.16876236113
2380.16874679466
2380.16869288023
2380.16861452796
2380.16856500445
2380.1685581515
2380.16854823379
2380.16854948434
2380.16854716093
2380.16852315041
2380.16852035085
2380.16850562785
2380.16843854488
2380.16851213431
2380.16860331006
2380.16859639187
2380.16862785013
2380.16887323873
2380.16986420355
2380.17329267566
2380.18420944979
2380.21700961194
2380.31025466775
2380.56085839907
2381.20009004711
2382.75955793637
2386.44891459557
2395.01940261667
2414.31512306293
2453.55144118699
2518.28970728876
2168.39920580313
2130.23283283005
2108.96077486522
2098.65675448783
2094.17134500818
2092.29120678622
2091.51756449083
2091.20725114073
2091.08754671348
2091.04356780518
2091.02820343237
2091.02316668457
2091.02167213903
2091.02127765578
2091.02122372288
2091.02124271277
2091.02126970837
2091.02129490595
2091.02130763802
2091.02130917347
2091.02131013303
2091.02129710645
2091.02125919526
2091.02123622081
2091.02124141759
2091.02124548614
2091.02124911537
2091.02124988259
2091.0212417097
2091.02123876374
2091.02122647925
2091.02118254376
2091.02121143832
2091.02124347263
2091.02123350212
2091.02124109507
2091.02133321079
2091.02177191896
2091.0233655009
2091.02851429034
2091.04407931444
2091.08855970486
2091.20892749168
2091.51938073463
2092.29054970198
2094.16472118994
2098.66897740451
2109.18012560939
2131.34658294652
2171.83553589554
1993.99494471706
1973.44377633935
1962.90142289574
1957.94562843826
1955.84927780973
1954.99437619862
1954.65003819476
1954.51358487184
1954.46114723182
1954.44184444831
1954.43506445619
1954.4328319777
1954.43217400057
1954.43201606164
1954.43200611521
1954.43201924347
1954.43203816568
1954.43205512501
1954.43206579827
1954.43206799175
1954.43207180593
1954.43207072223
1954.43205477894
1954.43204668337
1954.43205247447
1954.43205704409
1954.43205959571
1954.43206094072
1954.43205845549
1954.4320565013
1954.43204917721
1954.43202523478
1954.43203465752
1954.43204364607
1954.43203451743
1954.43203820384
1954.43206980315
1954.43224175592
1954.43291662248
1954.43512750205
1954.44183144418
1954.46101835408
1954.51310726929
1954.64848442443
1954.98979458396
1955.83910599177
1957.94255725183
1963.01152542798
1974.08480332945
1996.23315615236
1913.6560737325
1903.72887952196
1898.99734712127
1896.83443589116
1895.9417434408
1895.58625141553
1895.44576501576
1895.39068000019
1895.36956400129
1895.36176658155
1895.35901094381
1895.35809904971
1895.35783313621
1895.35777479434
1895.35777466752
1895.35778282156
1895.35779329864
1895.35780259171
1895.35780902498
1895.35781142725
1895.3578136735
1895.35781404259
1895.35780889645
1895.35780708157
1895.35781072419
1895.35781326279
1895.35781456272
1895.35781552292
1895.35781470181
1895.3578134602
1895.3578099402
1895.35779866313
1895.35780094585
1895.35780249721
1895.35779776832
1895.35779831676
1895.35780600079
1895.35786954533
1895.35813562749
1895.35901713683
1895.36169190873
1895.3693353385
1895.39008889733
1895.44427674473
1895.5825395215
1895.9337285077
1896.82680440068
1899.04233256322
1904.05113339298
1914.91536829159
1879.46567772792
1875.08686832238
1873.12996735779
1872.25880371789
1871.90684316761
1871.76952875572
1871.71617759
1871.69545627604
1871.68752690784
1871.68458798177
1871.68354292565
1871.68319538557
1871.68309511957
1871.68307503259
1871.68307645063
1871.68308073218
1871.68308576222
1871.68309019006
1871.68309341892
1871.68309491266
1871.68309593319
1871.68309606816
1871.68309510361
1871.68309553995
1871.68309703027
1871.68309812593
1871.68309868039
1871.68309915426
1871.68309884986
1871.68309817407
1871.68309664553
1871.68309187019
1871.68309208387
1871.68309185692
1871.68309006843
1871.68309015247
1871.68309144324
1871.68311318534
1871.68321143366
1871.68354210323
1871.68454434076
1871.68739698035
1871.6951240906
1871.7153407274
1871.76740941699
1871.90202131675
1872.25238612021
1873.14492995565
1875.23172588033
1880.09620450456
1865.88937189252
1864.10198708736
1863.34635675832
1863.0184160753
1862.888391264
1862.83855195667
1862.81947903189
1862.81213531643
1862.8093290553
1862.80828497046
1862.80791155342
1862.80778684721
1862.80775121788
1862.80774470716
1862.80774574639
1862.8077477244
1862.80774990018
1862.80775180547
1862.80775324769
1862.80775406476
1862.80775450997
1862.80775456091
1862.80775457613
1862.80775505072
1862.80775565398
1862.80775607489
1862.80775628486
1862.80775646979
1862.8077563484
1862.80775603154
1862.80775541317
1862.80775363915
1862.80775341731
1862.80775311947
1862.80775244144
1862.80775224325
1862.80775227605
1862.8077592712
1862.80779375231
1862.80791156919
1862.80826770548
1862.80927554162
1862.81199360647
1862.81910367519
1862.83754402804
1862.88593714459
1863.01449171726
1863.35012987192
1864.16120632977
1866.1761150962
1860.8184720248
1860.13625575068
1859.86110878108
1859.74459153939
1859.69916549871
1859.68201675194
1859.67554196495
1859.67306893285
1859.67212517126
1859.67177277479
1859.67164609173
1859.67160364171
1859.67159166765
1859.67158967278
1859.6715901582
1859.67159098245
1859.67159184866
1859.67159260523
1859.67159319461
1859.67159356864
1859.67159381937
1859.67159392418
1859.67159397795
1859.67159417273
1859.67159439766
1859.67159454809
1859.6715946212
1859.67159468132
1859.67159463142
1859.67159449966
1859.67159426528
1859.67159365686
1859.67159348702
1859.67159330868
1859.67159301044
1859.67159283303
1859.67159271462
1859.67159491103
1859.67160651588
1859.67164664524
1859.67176752068
1859.67210722478
1859.67301803993
1859.67539579193
1859.68159222859
1859.69805769146
1859.7425895733
1859.86156673144
1860.15855039626
1860.93868684847
1859.02476969033
1858.77925946269
1858.68404550881
1858.64466723669
1858.62954886534
1858.62391611043
1858.62181452165
1858.6210177975
1858.62071418496
1858.62060045823
1858.6205593946
1858.62054559824
1858.62054174994
1858.62054116501
1858.62054136981
1858.62054168629
1858.62054200769
1858.62054228824
1858.62054251202
1858.62054266362
1858.62054277418
1858.62054283381
1858.62054287079
1858.62054294755
1858.62054302558
1858.62054307649
1858.62054310037
1858.6205431159
1858.62054309607
1858.62054304715
1858.62054296313
1858.62054276601
1858.62054268266
1858.62054259621
1858.62054246896
1858.62054236851
1858.62054229344
1858.62054297133
1858.62054673719
1858.6205598708
1858.62059926943
1858.6207091599
1858.62100179212
1858.62176306167
1858.62375252252
1858.62909283965
1858.64376562231
1858.68383144424
1858.78706168909
1859.07176092453
1858.42047576078
1858.33660809739
1858.30510515724
1858.29236741886
1858.28754589099
1858.28576981326
1858.28511401105
1858.28486710244
1858.28477316141
1858.28473788055
1858.28472509449
1858.28472078938
1858.28471959836
1858.28471943273
1858.28471951136
1858.28471962416
1858.28471973583
1858.28471983337
1858.28471991278
1858.28471996893
1858.28472001086
1858.28472003669
1858.28472005492
1858.28472008276
1858.28472010814
1858.28472012452
1858.28472013196
1858.28472013509
1858.28472012796
1858.28472011102
1858.28472008213
1858.28472002087
1858.28471998664
1858.2847199506
1858.28471990054
1858.28471985565
1858.28471982295
1858.28472002969
1858.28472121338
1858.28472536073
1858.28473774411
1858.28477201663
1858.28486261109
1858.28509720048
1858.28571091264
1858.28737148545
1858.29199766241
1858.3048949174
1858.33916399589
1858.43775539219
1858.22563597233
1858.19828797859
1858.18827417255
1858.18431073759
1858.18283017244
1858.18229013858
1858.1820925188
1858.18201858244
1858.18199050096
1858.18197993219
1858.18197608959
1858.1819747927
1858.18197443502
1858.18197438814
1858.18197441502
1858.18197445199
1858.18197448796
1858.18197451944
1858.18197454551
1858.1819745645
1858.18197457869
1858.1819745881
1858.1819745952
1858.18197460431
1858.18197461194
1858.1819746168
1858.181974619
1858.18197461948
1858.18197461712
1858.1819746116
1858.18197460223
1858.18197458396
1858.18197457164
1858.18197455851
1858.18197454078
1858.18197452402
1858.18197451268
1858.18197457575
1858.18197493824
1858.18197620672
1858.18197997259
1858.18199031452
1858.18201744442
1858.1820873147
1858.18227001972
1858.18276736666
1858.18416992682
1858.18815842332
1858.1990756854
1858.23165633697
1858.16526371434
1858.15671109708
1858.15364126385
1858.15245013032
1858.15201064283
1858.15185171268
1858.15179399736
1858.15177252515
1858.15176438405
1858.15176131415
1858.151760194
1858.15175981423
1858.15175970834
1858.15175969364
1858.15175970104
1858.15175971148
1858.15175972159
1858.15175973048
1858.15175973794
1858.15175974341
1858.15175974743
1858.15175975015
1858.15175975225
1858.15175975475
1858.1517597567
1858.15175975787
1858.15175975843
1858.1517597585
1858.15175975783
1858.15175975625
1858.15175975352
1858.15175974849
1858.15175974479
1858.15175974088
1858.15175973562
1858.15175973072
1858.15175972798
1858.15175974825
1858.15175985777
1858.1517602353
1858.15176134717
1858.15176437588
1858.1517722592
1858.15179243937
1858.15184511684
1858.15198913128
1858.15239966505
1858.15358949238
1858.1569402514
1858.16726282265
1858.1472218635
1858.14464648613
1858.14373602653
1858.14338912233
1858.14326259898
1858.14321718826
1858.14320080236
1858.14319473503
1858.14319243741
1858.14319156846
1858.14319124921
1858.14319113951
1858.14319110729
1858.14319110105
1858.14319110162
1858.14319110326
1858.14319110496
1858.14319110646
1858.14319110772
1858.14319110846
1858.14319110896
1858.14319110924
1858.14319110934
1858.14319110974
1858.14319110996
1858.14319111001
1858.14319111016
1858.1431911102
1858.14319111006
1858.1431911098
1858.14319110928
1858.14319110826
1858.14319110769
1858.14319110718
1858.14319110641
1858.14319110585
1858.14319110652
1858.14319111428
1858.14319114769
1858.14319125834
1858.14319157898
1858.14319244303
1858.14319467235
1858.14320034027
1858.1432150922
1858.14325553585
1858.14337193608
1858.14371548628
1858.14470951337
1858.14785763971
1858.14200559519
1858.14125635645
1858.14099443453
1858.14089624837
1858.14086082077
1858.14084818913
1858.14084365392
1858.14084197988
1858.14084134519
1858.14084110317
1858.14084101239
1858.14084097957
1858.14084096833
1858.14084096447
1858.14084096274
1858.14084096159
1858.14084096064
1858.14084095981
1858.14084095909
1858.14084095838
1858.14084095773
1858.14084095713
1858.14084095662
1858.14084095627
1858.14084095597
1858.14084095576
1858.14084095567
1858.14084095565
1858.14084095573
1858.1408409559
1858.14084095611
1858.14084095633
1858.14084095681
1858.14084095745
1858.14084095821
1858.14084095925
1858.14084096092
1858.14084096485
1858.14084097622
1858.14084100941
1858.14084110123
1858.14084134329
1858.1408419596
1858.14084351255
1858.14084753608
1858.1408585818
1858.14089064517
1858.14098693693
1858.14127273719
1858.14220005064
1858.14054255287
1858.14033136408
1858.14025811354
1858.14023103402
1858.14022135801
1858.14021792748
1858.14021669928
1858.14021624538
1858.14021607153
1858.1402160033
1858.14021597592
1858.14021596438
1858.14021595891
1858.14021595567
1858.14021595327
1858.14021595125
1858.14021594948
1858.14021594793
1858.14021594658
1858.14021594539
1858.14021594435
1858.14021594347
1858.14021594273
1858.14021594215
1858.14021594171
1858.14021594141
1858.14021594126
1858.14021594125
1858.1402159414
1858.1402159417
1858.14021594215
1858.14021594275
1858.14021594357
1858.14021594461
1858.14021594587
1858.14021594742
1858.14021594938
1858.14021595223
1858.14021595736
1858.14021596871
1858.14021599622
1858.14021606445
1858.14021623298
1858.14021665058
1858.14021772341
1858.14022066637
1858.14022927325
1858.14025554526
1858.14033537094
1858.14059995045
1858.14014351518
1858.14008571511
1858.14006576276
1858.14005846052
1858.14005587225
1858.14005495836
1858.1400546303
1858.14005450716
1858.14005445797
1858.14005443676
1858.14005442654
1858.14005442076
1858.14005441683
1858.14005441375
1858.14005441113
1858.14005440883
1858.1400544068
1858.14005440502
1858.14005440346
1858.1400544021
1858.14005440094
1858.14005439995
1858.14005439913
1858.14005439849
1858.140054398
1858.14005439767
1858.14005439751
1858.1400543975
1858.14005439767
1858.14005439802
1858.14005439855
1858.14005439927
1858.14005440021
1858.14005440138
1858.14005440281
1858.14005440453
1858.14005440659
1858.14005440914
1858.14005441256
1858.14005441791
1858.14005442781
1858.14005444869
1858.14005449603
1858.14005460825
1858.14005489039
1858.14005565967
1858.14005792223
1858.14006492564
1858.14008662638
1858.14015991128
1858.14003745452
1858.14002208467
1858.14001678373
1858.14001484443
1858.14001415964
1858.14001391788
1858.1400138293
1858.14001379389
1858.14001377771
1858.14001376897
1858.1400137633
1858.14001375904
1858.14001375552
1858.14001375246
1858.14001374976
1858.14001374737
1858.14001374525
1858.14001374338
1858.14001374174
1858.14001374032
1858.1400137391
1858.14001373807
1858.14001373723
1858.14001373655
1858.14001373605
1858.14001373571
1858.14001373554
1858.14001373554
1858.14001373572
1858.14001373609
1858.14001373664
1858.14001373741
1858.1400137384
1858.14001373963
1858.14001374112
1858.1400137429
1858.140013745
1858.14001374748
1858.14001375044
1858.14001375417
1858.14001375935
1858.14001376762
1858.1400137829
1858.14001381487
1858.14001389017
1858.14001409071
1858.14001468088
1858.14001652009
1858.14002226953
1858.14004199488
1858.14000993112
1858.14000597787
1858.14000460362
1858.14000408479
1858.1400038998
1858.1400038337
1858.14000380754
1858.14000379497
1858.1400037874
1858.14000378192
1858.14000377745
1858.14000377359
1858.14000377017
1858.14000376711
1858.14000376438
1858.14000376194
1858.14000375978
1858.14000375787
1858.1400037562
1858.14000375475
1858.1400037535
1858.14000375245
1858.14000375159
1858.1400037509
1858.14000375039
1858.14000375005
1858.14000374988
1858.14000374988
1858.14000375007
1858.14000375044
1858.14000375102
1858.1400037518
1858.14000375282
1858.14000375407
1858.1400037556
1858.14000375741
1858.14000375952
1858.14000376198
1858.14000376482
1858.14000376812
1858.14000377205
1858.14000377701
1858.14000378396
1858.14000379525
1858.14000381759
1858.14000387268
1858.14000403232
1858.1400045209
1858.14000600474
1858.14001114817
1858.14000294558
1858.14000198676
1858.14000164031
1858.14000148963
1858.14000143321
1858.14000141215
1858.14000140201
1858.14000139532
1858.14000138999
1858.14000138537
1858.14000138123
1858.14000137748
1858.14000137408
1858.14000137101
1858.14000136826
1858.1400013658
1858.14000136362
1858.14000136169
1858.14000136
1858.14000135853
1858.14000135727
1858.14000135621
1858.14000135533
1858.14000135463
1858.14000135412
1858.14000135377
1858.1400013536
1858.14000135361
1858.1400013538
1858.14000135419
1858.14000135477
1858.14000135557
1858.1400013566
1858.14000135787
1858.14000135941
1858.14000136123
1858.14000136337
1858.14000136582
1858.14000136863
1858.1400013718
1858.14000137539
1858.14000137948
1858.14000138427
1858.14000139029
1858.1400013993
1858.14000141792
1858.14000146908
1858.14000161231
1858.14000198261
1858.14000325724
1858.14000120886
1858.14000101712
1858.14000093385
1858.14000087671
1858.14000085279
1858.1400008431
1858.14000083704
1858.14000083188
1858.14000082715
1858.14000082277
1858.14000081872
1858.14000081501
1858.14000081162
1858.14000080855
1858.14000080578
1858.14000080331
1858.14000080111
1858.14000079917
1858.14000079747
1858.14000079599
1858.14000079472
1858.14000079365
1858.14000079277
1858.14000079207
1858.14000079155
1858.1400007912
1858.14000079103
1858.14000079105
1858.14000079124
1858.14000079163
1858.14000079222
1858.14000079303
1858.14000079407
1858.14000079535
1858.1400007969
1858.14000079874
1858.14000080088
1858.14000080333
1858.14000080613
1858.14000080926
1858.14000081275
1858.14000081659
1858.1400008208
1858.14000082548
1858.14000083115
1858.14000084076
1858.14000086508
1858.14000092181
1858.14000100786
1858.14000128029
1858.14000078534
1858.14000078583
1858.14000076858
1858.1400007348
1858.14000071896
1858.14000071213
1858.14000070712
1858.14000070237
1858.14000069781
1858.14000069351
1858.1400006895
1858.1400006858
1858.14000068241
1858.14000067934
1858.14000067657
1858.14000067409
1858.14000067189
1858.14000066994
1858.14000066823
1858.14000066674
1858.14000066547
1858.1400006644
1858.14000066351
1858.14000066281
1858.14000066229
1858.14000066195
1858.14000066178
1858.14000066179
1858.14000066199
1858.14000066239
1858.14000066298
1858.1400006638
1858.14000066484
1858.14000066613
1858.14000066769
1858.14000066953
1858.14000067167
1858.14000067413
1858.14000067692
1858.14000068004
1858.14000068349
1858.14000068725
1858.1400006913
1858.14000069561
1858.14000070043
1858.14000070783
1858.14000072562
1858.14000076108
1858.14000077607
1858.1400007946
1858.14000068399
1858.14000073168
1858.14000073066
1858.14000070258
1858.14000068873
1858.14000068261
1858.14000067786
1858.14000067322
1858.14000066871
1858.14000066444
1858.14000066044
1858.14000065675
1858.14000065337
1858.1400006503
1858.14000064753
1858.14000064505
1858.14000064285
1858.1400006409
1858.14000063919
1858.1400006377
1858.14000063643
1858.14000063536
1858.14000063447
1858.14000063377
1858.14000063325
1858.14000063291
1858.14000063275
1858.14000063276
1858.14000063296
1858.14000063336
1858.14000063396
1858.14000063478
1858.14000063583
1858.14000063712
1858.14000063868
1858.14000064052
1858.14000064267
1858.14000064513
1858.14000064791
1858.14000065102
1858.14000065446
1858.14000065819
1858.14000066219
1858.1400006664
1858.14000067101
1858.14000067788
1858.14000069411
1858.14000072446
1858.14000072207
1858.14000067759
1858.14000066036
1858.14000071941
1858.14000072223
1858.14000069547
1858.14000068205
1858.14000067607
1858.14000067137
1858.14000066675
1858.14000066225
1858.14000065798
1858.14000065399
1858.1400006503
1858.14000064693
1858.14000064386
1858.1400006411
1858.14000063863
1858.14000063643
1858.14000063448
1858.14000063278
1858.1400006313
1858.14000063003
1858.14000062896
1858.14000062808
1858.14000062738
1858.14000062687
1858.14000062653
1858.14000062637
1858.14000062638
1858.14000062659
1858.14000062699
1858.14000062759
1858.14000062841
1858.14000062946
1858.14000063075
1858.14000063231
1858.14000063415
1858.1400006363
1858.14000063875
1858.14000064154
1858.14000064465
1858.14000064808
1858.14000065181
1858.1400006558
1858.14000066
1858.14000066458
1858.14000067135
1858.14000068725
1858.14000071647
1858.14000070999
1858.14000065016
1858.14000065527
1858.140000717
1858.14000072059
1858.14000069403
1858.14000068063
1858.14000067461
1858.14000066988
1858.14000066522
1858.14000066071
1858.14000065643
1858.14000065243
1858.14000064875
1858.14000064538
1858.14000064232
1858.14000063957
1858.14000063711
1858.14000063492
1858.14000063298
1858.14000063129
1858.14000062982
1858.14000062856
1858.1400006275
1858.14000062662
1858.14000062593
1858.14000062542
1858.14000062509
1858.14000062493
1858.14000062495
1858.14000062516
1858.14000062556
1858.14000062616
1858.14000062698
1858.14000062802
1858.14000062931
1858.14000063087
1858.14000063271
1858.14000063485
1858.1400006373
1858.14000064008
1858.14000064319
1858.14000064663
1858.14000065037
1858.14000065439
1858.14000065862
1858.14000066324
1858.14000067005
1858.14000068598
1858.14000071506
1858.14000070777
1858.14000064428
1858.14000065469
1858.14000071703
1858.14000072057
1858.14000069387
1858.14000068033
1858.1400006742
1858.14000066938
1858.14000066466
1858.14000066011
1858.1400006558
1858.1400006518
1858.14000064811
1858.14000064475
1858.14000064171
1858.14000063897
1858.14000063653
1858.14000063435
1858.14000063244
1858.14000063076
1858.1400006293
1858.14000062805
1858.140000627
1858.14000062614
1858.14000062546
1858.14000062495
1858.14000062463
1858.14000062447
1858.1400006245
1858.1400006247
1858.1400006251
1858.1400006257
1858.14000062651
1858.14000062756
1858.14000062884
1858.14000063039
1858.14000063222
1858.14000063435
1858.1400006368
1858.14000063958
1858.1400006427
1858.14000064615
1858.14000064992
1858.14000065398
1858.14000065828
1858.14000066299
1858.14000066992
1858.14000068599
1858.14000071524
1858.14000070801
1858.14000064366
1858.14000065534
1858.1400007178
1858.14000072102
1858.14000069402
1858.14000068026
1858.14000067396
1858.140000669
1858.14000066419
1858.14000065957
1858.14000065523
1858.14000065122
1858.14000064753
1858.14000064418
1858.14000064115
1858.14000063844
1858.14000063601
1858.14000063386
1858.14000063197
1858.14000063031
1858.14000062887
1858.14000062764
1858.1400006266
1858.14000062575
1858.14000062509
1858.14000062459
1858.14000062427
1858.14000062412
1858.14000062415
1858.14000062435
1858.14000062475
1858.14000062535
1858.14000062615
1858.14000062719
1858.14000062846
1858.14000063
1858.14000063182
1858.14000063394
1858.14000063639
1858.14000063916
1858.14000064229
1858.14000064576
1858.14000064957
1858.14000065369
1858.14000065809
1858.14000066294
1858.14000067005
1858.14000068636
1858.14000071592
1858.14000070902
1858.14000064447
1858.1400006565
1858.14000071896
1858.1400007217
1858.14000069429
1858.14000068021
1858.14000067368
1858.14000066855
1858.14000066361
1858.14000065891
1858.14000065453
1858.14000065049
1858.14000064681
1858.14000064347
1858.14000064046
1858.14000063777
1858.14000063538
1858.14000063326
1858.14000063139
1858.14000062976
1858.14000062834
1858.14000062713
1858.14000062612
1858.14000062528
1858.14000062463
1858.14000062414
1858.14000062383
1858.14000062369
1858.14000062372
1858.14000062392
1858.14000062432
1858.14000062491
1858.14000062571
1858.14000062673
1858.14000062799
1858.14000062952
1858.14000063132
1858.14000063343
1858.14000063586
1858.14000063864
1858.14000064177
1858.14000064527
1858.14000064913
1858.14000065334
1858.14000065786
1858.14000066289
1858.14000067024
1858.14000068687
1858.14000071686
1858.14000071045
1858.14000064587
1858.14000065804
1858.14000072045
1858.14000072258
1858.14000069463
1858.14000068015
1858.14000067332
1858.14000066797
1858.14000066288
1858.14000065809
1858.14000065365
1858.14000064959
1858.14000064591
1858.14000064259
1858.14000063961
1858.14000063695
1858.14000063459
1858.1400006325
1858.14000063067
1858.14000062906
1858.14000062768
1858.1400006265
1858.1400006255
1858.14000062469
1858.14000062405
1858.14000062358
1858.14000062327
1858.14000062314
1858.14000062317
1858.14000062337
1858.14000062376
1858.14000062435
1858.14000062513
1858.14000062614
1858.14000062739
1858.14000062889
1858.14000063068
1858.14000063277
1858.14000063519
1858.14000063796
1858.1400006411
1858.14000064463
1858.14000064855
1858.14000065286
1858.14000065755
1858.14000066279
1858.14000067045
1858.14000068748
1858.14000071803
1858.14000071225
1858.14000064769
1858.14000065997
1858.14000072232
1858.14000072365
1858.14000069503
1858.14000068005
1858.14000067285
1858.14000066724
1858.14000066198
1858.14000065707
1858.14000065257
1858.14000064849
1858.14000064482
1858.14000064152
1858.14000063857
1858.14000063595
1858.14000063363
1858.14000063159
1858.14000062979
1858.14000062823
1858.14000062688
1858.14000062572
1858.14000062476
1858.14000062397
1858.14000062335
1858.14000062289
1858.14000062259
1858.14000062246
1858.1400006225
1858.1400006227
1858.14000062309
1858.14000062366
1858.14000062443
1858.14000062542
1858.14000062665
1858.14000062813
1858.14000062989
1858.14000063196
1858.14000063436
1858.14000063712
1858.14000064027
1858.14000064383
1858.14000064782
1858.14000065225
1858.14000065712
1858.14000066263
1858.14000067065
1858.14000068819
1858.14000071943
1858.14000071446
1858.14000064994
1858.14000066236
1858.1400007246
1858.14000072494
1858.14000069549
1858.1400006799
1858.14000067227
1858.14000066635
1858.14000066089
1858.14000065586
1858.1400006513
1858.1400006472
1858.14000064353
1858.14000064027
1858.14000063736
1858.14000063479
1858.14000063252
1858.14000063052
1858.14000062877
1858.14000062725
1858.14000062594
1858.14000062482
1858.14000062388
1858.14000062312
1858.14000062252
1858.14000062208
1858.14000062179
1858.14000062167
1858.14000062171
1858.14000062191
1858.14000062228
1858.14000062284
1858.1400006236
1858.14000062457
1858.14000062577
1858.14000062723
1858.14000062896
1858.140000631
1858.14000063338
1858.14000063612
1858.14000063928
1858.14000064287
1858.14000064693
1858.14000065149
1858.14000065656
1858.14000066238
1858.14000067084
1858.140000689
1858.14000072109
1858.14000071712
1858.14000065267
1858.1400006653
1858.14000072738
1858.14000072648
1858.140000696
1858.14000067969
1858.14000067155
1858.14000066529
1858.1400006596
1858.14000065444
1858.14000064982
1858.14000064571
1858.14000064206
1858.14000063883
1858.14000063598
1858.14000063346
1858.14000063125
1858.1400006293
1858.14000062761
1858.14000062613
1858.14000062487
1858.14000062379
1858.14000062288
1858.14000062215
1858.14000062157
1858.14000062115
1858.14000062088
1858.14000062076
1858.1400006208
1858.140000621
1858.14000062136
1858.14000062191
1858.14000062265
1858.14000062359
1858.14000062476
1858.14000062619
1858.14000062788
1858.14000062989
1858.14000063223
1858.14000063496
1858.14000063811
1858.14000064173
1858.14000064586
1858.14000065055
1858.14000065586
1858.14000066203
1858.140000671
1858.14000068989
1858.14000072303
1858.1400007203
1858.14000065598
1858.1400006689
1858.14000073074
1858.1400007283
1858.14000069657
1858.14000067939
1858.14000067067
1858.14000066402
1858.14000065809
1858.1400006528
1858.14000064813
1858.14000064401
1858.1400006404
1858.14000063721
1858.14000063442
1858.14000063197
1858.14000062982
1858.14000062794
1858.1400006263
1858.14000062488
1858.14000062367
1858.14000062263
1858.14000062176
1858.14000062106
1858.1400006205
1858.1400006201
1858.14000061985
1858.14000061974
1858.14000061978
1858.14000061997
1858.14000062033
1858.14000062086
1858.14000062157
1858.14000062249
1858.14000062363
1858.14000062501
1858.14000062667