/*--------------------------------*- C++ -*----------------------------------*\
  =========                 |
  \\      /  F ield         | OpenFOAM: The Open Source CFD Toolbox
   \\    /   O peration     | Website:  https://openfoam.org
    \\  /    A nd           | Version:  10
     \\/     M anipulation  |
\*---------------------------------------------------------------------------*/
FoamFile
{
    format      ascii;
    class       volScalarField;
    location    "4";
    object      k;
}
// * * * * * * * * * * * * * * * * * * * * * * * * * * * * * * * * * * * * * //

dimensions      [0 2 -2 0 0 0 0];

internalField   nonuniform List<scalar> 
2500
(
1.93865513397338e-09
3.75066858734263e-08
1.56839897120747e-07
2.61571318806594e-07
3.3882659441992e-07
3.88866153607276e-07
4.17653648761399e-07
4.32507715067039e-07
4.39446831020877e-07
4.42407406340104e-07
4.4357026902616e-07
4.43993743515523e-07
4.44137561604453e-07
4.44183281354257e-07
4.44196866389953e-07
4.44200573049645e-07
4.44201418315056e-07
4.44201487317247e-07
4.44201383200364e-07
4.44201255792997e-07
4.4420113759301e-07
4.44201035224859e-07
4.44200949182472e-07
4.4420087890108e-07
4.44200824207744e-07
4.44200785957498e-07
4.44200766679534e-07
4.44200766560646e-07
4.44200775266334e-07
4.44200789533474e-07
4.44200818666983e-07
4.44200848179205e-07
4.44200815595138e-07
4.4420045956506e-07
4.44198890745967e-07
4.44193229387655e-07
4.44174400397692e-07
4.44115408697652e-07
4.43940695184761e-07
4.43452627492652e-07
4.42172266569602e-07
4.39036038647118e-07
4.31910923015003e-07
4.17011722365351e-07
3.88578851196135e-07
3.39518032170516e-07
2.63717602346813e-07
1.5998977395181e-07
3.91029468788829e-08
2.08550662293863e-09
4.71908811909589e-08
1.06498956754586e-06
4.55013463476903e-06
7.60458365314286e-06
9.87394510380586e-06
1.13583651880401e-05
1.2222130957435e-05
1.26733501770921e-05
1.28868450196541e-05
1.29791119331339e-05
1.30158168763837e-05
1.30293509157813e-05
1.30340033554646e-05
1.30355002013512e-05
1.30359506243536e-05
1.30360755551869e-05
1.30361051063724e-05
1.30361083817675e-05
1.30361055755907e-05
1.3036101873642e-05
1.30360983904062e-05
1.3036095365549e-05
1.30360928237597e-05
1.30360907506259e-05
1.30360891409486e-05
1.30360880191982e-05
1.30360874459904e-05
1.30360874423499e-05
1.30360877290614e-05
1.30360881497189e-05
1.30360890108044e-05
1.30360898051957e-05
1.30360883568878e-05
1.30360758905796e-05
1.30360231899707e-05
1.30358360400097e-05
1.3035220194638e-05
1.30333098059131e-05
1.30277085000754e-05
1.3012222995384e-05
1.29720356885101e-05
1.28746892781191e-05
1.26560391501532e-05
1.22040411970573e-05
1.13511451738865e-05
9.89509529377377e-06
7.66670196008951e-06
4.63954221261523e-06
1.10888711680519e-06
5.05723156815522e-08
1.64959737903236e-07
4.71413018436317e-06
2.26776140269814e-05
3.77242116805069e-05
4.88162871016447e-05
5.60664657101397e-05
6.03011908828775e-05
6.25285848052887e-05
6.35917779613073e-05
6.40558130359213e-05
6.42423385143215e-05
6.43118482669393e-05
6.43360000801909e-05
6.4343856059654e-05
6.43462484068662e-05
6.43469225660052e-05
6.43470876007022e-05
6.43471104161693e-05
6.4347098926469e-05
6.43470820492488e-05
6.43470658337716e-05
6.43470516667361e-05
6.43470397331576e-05
6.43470299851046e-05
6.43470224031114e-05
6.43470170924203e-05
6.43470142952416e-05
6.43470141937931e-05
6.43470154875655e-05
6.43470173320752e-05
6.43470211559042e-05
6.43470243553517e-05
6.43470149879417e-05
6.43469465832281e-05
6.43466682419211e-05
6.43456912831111e-05
6.43425007754798e-05
6.43326701681813e-05
6.43040397241299e-05
6.42254346561611e-05
6.40229037888941e-05
6.35359014153149e-05
6.24499552052197e-05
6.02200666406758e-05
5.60349916554114e-05
4.89116146568146e-05
3.80015441021313e-05
2.30769630541973e-05
4.88615294824238e-06
1.74612364148443e-07
2.88039307592546e-07
8.28987393798533e-06
3.98032489268272e-05
6.57305027119957e-05
8.46491262348714e-05
9.69448649658215e-05
0.000104110832564576
0.000107881134274633
0.000109684366429409
0.000110473824498211
0.000110792372336853
0.000110911598262493
0.000110953223472381
0.000110966834993388
0.000110971005782743
0.000110972191328038
0.000110972486887961
0.00011097253200671
0.000110972515385478
0.000110972488639207
0.000110972462537737
0.00011097243961245
0.000110972420242858
0.000110972404373651
0.000110972391974264
0.000110972383196911
0.000110972378395172
0.000110972377910849
0.000110972379605343
0.000110972382629474
0.000110972388522051
0.000110972393284483
0.00011097237661332
0.000110972261655304
0.000110971797199713
0.000110970164943522
0.000110964823342328
0.000110948327385396
0.000110900182551799
0.000110767754642752
0.000110426018688144
0.000109603256288406
0.000107766621404583
0.000103990738873985
9.68912395994686e-05
8.47686765354671e-05
6.60998898287771e-05
4.03405189631298e-05
8.52080702099166e-06
3.00858122712713e-07
4.03856130562881e-07
1.16337195083773e-05
5.55129076357162e-05
9.11082462362466e-05
0.000116875971276951
0.000133550808972304
0.000143253593114078
0.000148360600846321
0.000150807407482484
0.000151881494364147
0.000152316342023514
0.000152479726666871
0.000152537016628633
0.000152555842224421
0.000152561644514345
0.000152563307601858
0.00015256372982862
0.000152563800441992
0.000152563782431235
0.000152563749176867
0.000152563716078317
0.000152563686811073
0.000152563661983928
0.000152563641558913
0.000152563625496379
0.000152563613958879
0.000152563607343067
0.00015256360602195
0.000152563607635662
0.000152563611525403
0.000152563618480494
0.000152563623465242
0.000152563599150534
0.000152563444276666
0.000152562824259652
0.000152560643829254
0.000152553494752347
0.000152531366391147
0.000152466638459266
0.000152288237535774
0.000151827068195064
0.000150715151301863
0.00014822996759052
0.000143114477102711
0.000133480974848143
0.000116990316450028
9.1489289030039e-05
5.60756129030579e-05
1.18811295314012e-05
4.17901605937989e-07
5.07992385123499e-07
1.46450619580008e-05
6.94837454149567e-05
0.000113453642248562
0.000145086150980759
0.000165490123864727
0.00017735081484499
0.000183597197579912
0.000186594922698164
0.000187914101094778
0.0001884498097562
0.000188651803942021
0.000188722915335626
0.000188746389085991
0.000188753664108681
0.000188755766053238
0.000188756309432262
0.000188756408109799
0.000188756392299735
0.000188756355784761
0.000188756318507726
0.000188756285261463
0.000188756256910999
0.000188756233458892
0.000188756214859808
0.00018875620126043
0.000188756193052974
0.000188756190520984
0.000188756191686229
0.000188756195895238
0.000188756202843212
0.000188756206646201
0.000188756174110002
0.00018875598452528
0.000188755234617472
0.000188752599106783
0.00018874394655931
0.000188717113577134
0.000188638472077152
0.000188421339221111
0.000187859191598217
0.000186502097688195
0.000183465747731854
0.000177209586118617
0.000165413837238463
0.00014518434058864
0.00011380451224016
7.00103335356794e-05
1.4885194165386e-05
5.22131148388593e-07
5.982995356623e-07
1.72658017685555e-05
8.15407634809088e-05
0.000132587785821491
0.000169135097504161
0.000192653758060498
0.000206317232323677
0.000213518137616549
0.000216979537788908
0.000218506234652908
0.000219127947714027
0.00021936312813724
0.000219446225552765
0.000219473771001156
0.00021948235206306
0.000219484850197366
0.000219485507286252
0.000219485635477133
0.000219485624913307
0.000219485588011402
0.00021948554905064
0.00021948551392123
0.000219485483764106
0.000219485458642579
0.000219485438511586
0.000219485423488576
0.000219485413942162
0.000219485410021423
0.000219485410441573
0.000219485414300419
0.00021948542018432
0.000219485421622374
0.000219485380467338
0.000219485160591475
0.000219484302966216
0.000219481294508961
0.000219471409595735
0.00021944070780197
0.00021935058060665
0.00021910135903388
0.000218455296792295
0.00021689396717978
0.000213397672777863
0.000206188362059284
0.000192583538053832
0.000169220055000531
0.000132895376253788
8.20057916977982e-05
1.74874260217614e-05
6.11929205131169e-07
6.74025481153602e-07
1.94735466363457e-05
9.16452807146908e-05
0.00014852888522297
0.000189106354721783
0.000215175087054907
0.000230316509181975
0.000238302611419415
0.000242147319524306
0.000243846617285303
0.000244540369996068
0.000244803568242703
0.000244896873761224
0.000244927921373691
0.000244937639401649
0.000244940488468549
0.000244941249784391
0.000244941407725578
0.000244941404970294
0.000244941369998492
0.00024494133137152
0.00024494129606101
0.000244941265495696
0.000244941239815239
0.000244941218982655
0.000244941203078445
0.00024494119239447
0.000244941187020581
0.000244941186362523
0.000244941189081459
0.000244941193335383
0.000244941191432766
0.000244941141456421
0.000244940895360779
0.000244939949555381
0.000244936640224167
0.000244925762300077
0.000244891935248612
0.000244792498582147
0.000244517184307826
0.000243802702211405
0.000242074503735321
0.000238201878382618
0.000230211975086479
0.000215124543173293
0.000189190010242289
0.000148799718220605
9.20481939066706e-05
1.96740857603467e-05
6.86918721445758e-07
7.35509668530429e-07
2.12758248022318e-05
9.98736742782935e-05
0.000161455424147781
0.00020526571412314
0.000233379803974012
0.000249709314503063
0.000258329111278284
0.000262484791959091
0.000264324997137378
0.000265077980526338
0.000265364396680946
0.000265466234991045
0.000265500238671407
0.000265510927786921
0.000265514081666586
0.000265514936354345
0.000265515123198989
0.00026551512987892
0.00026551509847692
0.000265515061663919
0.000265515027435573
0.000265514997508309
0.000265514972108205
0.000265514951214658
0.000265514934873231
0.000265514923289251
0.000265514916597136
0.000265514914471269
0.000265514915583287
0.000265514917723121
0.000265514911735452
0.000265514853076141
0.000265514584703196
0.000265513567824317
0.000265510020005367
0.000265498356870552
0.000265462053881889
0.000265355220049686
0.000265059112468379
0.000264289973244947
0.000262428228931406
0.00025825406806301
0.000249638312879271
0.00023336177587514
0.000205364195193062
0.000161707177309448
0.000100229022696181
2.14581990984717e-05
7.47689799924817e-07
7.839003229339e-07
2.2702970897504e-05
0.000106388504361614
0.000171661741049981
0.000218008178323959
0.000247728661113034
0.000264994099533968
0.000274115311539833
0.000278518417022409
0.000280471458401874
0.000281272215107048
0.000281577506273597
0.000281686341402826
0.00028172279254841
0.000281734295072062
0.000281737708496849
0.000281738644954304
0.000281738858844638
0.000281738875674133
0.000281738848807841
0.000281738814768761
0.000281738782462925
0.000281738753882229
0.000281738729343472
0.000281738708849495
0.000281738692420913
0.000281738680196579
0.000281738672298693
0.000281738668501523
0.000281738667824312
0.000281738667642997
0.000281738657029298
0.000281738590069317
0.000281738303382317
0.000281737230212729
0.00028173349693591
0.000281721225323773
0.000281683001112144
0.000281570412318724
0.000281258084650907
0.000280446214474999
0.000278479893525374
0.000274069368137398
0.000264962796598239
0.000247753605514995
0.000218137680814355
0.000171916057046662
0.000106717683602207
2.28729254376757e-05
7.95532734868356e-07
8.20857857536399e-07
2.38002235219879e-05
0.00011140679267618
0.000179511642368163
0.000227803549314491
0.000258758966602168
0.000276746578186427
0.000286256581034438
0.000290852659217534
0.000292894289900142
0.000293732829699863
0.000294053168043495
0.000294167629440504
0.000294206067617922
0.000294218238118386
0.000294221868078047
0.0002942228744347
0.000294223112841113
0.000294223139907008
0.000294223117884403
0.000294223087116655
0.000294223057200148
0.000294223030376533
0.000294223007051786
0.000294222987257028
0.000294222970998484
0.000294222958362856
0.000294222949431874
0.00029422294404178
0.000294222941373813
0.000294222938387692
0.000294222923350317
0.000294222849569366
0.000294222547733131
0.0002942214307973
0.000294217556186069
0.000294204822962698
0.000294165140031351
0.000294048171493487
0.000293723469542988
0.000292878932923594
0.000290832546851836
0.000286240894035957
0.000276758064217154
0.000258833887464808
0.000227977347545716
0.000179788784501538
0.000111731766238557
2.39642330605003e-05
8.3216192413402e-07
8.48277212778257e-07
2.46201287259781e-05
0.000115170073159607
0.000185395731917003
0.000235146799126057
0.000267031298063815
0.000285564568074223
0.000295369894132028
0.000300113455115338
0.000302223256916603
0.000303091089611859
0.000303423188274528
0.000303542085318785
0.000303582105100815
0.00030359481329925
0.000303598620200415
0.000303599684755667
0.000303599944925861
0.000303599982076475
0.000303599964435208
0.000303599937051838
0.000303599909690169
0.000303599884794123
0.0003035998628515
0.000303599843923484
0.000303599828010932
0.0003035998151629
0.000303599805422398
0.000303599798645471
0.000303599794025016
0.000303599788426391
0.000303599769611487
0.000303599689869891
0.000303599375831223
0.000303598225523102
0.000303594245449461
0.000303581169657444
0.000303540403759829
0.000303420176873024
0.000303086248040443
0.000302217306733889
0.000300111020958623
0.000295383744425084
0.000285619080641815
0.000267159341127262
0.000235373572756267
0.000185711292233905
0.000115509297534251
2.47839749753818e-05
8.59464135156284e-07
8.6806072785465e-07
2.52161745581219e-05
0.000117919560847047
0.000189696602987204
0.000240517800141897
0.000273086300682059
0.000292023243700409
0.000302048294806898
0.000306902292937142
0.00030906350444101
0.000309953597188897
0.000310294706066481
0.000310417031390338
0.000310458285332415
0.000310471417783877
0.000310475366321142
0.000310476478306265
0.000310476757028267
0.000310476802836381
0.000310476789812481
0.000310476765686519
0.000310476740827996
0.000310476717854534
0.000310476697326151
0.00031047667933313
0.000310476663877115
0.000310476650982505
0.000310476640659417
0.000310476632761131
0.00031047662648835
0.000310476618634541
0.000310476596595077
0.000310476511910651
0.000310476188292389
0.000310475013065196
0.000310470955994121
0.000310457631643857
0.000310416079945636
0.000310293484332928
0.000309952833470587
0.000309066080060882
0.000306916016470272
0.000302089535417459
0.00029211863814378
0.00027326696874185
0.000240801187695767
0.000190060112195716
0.000118285983666749
2.5384185302865e-05
8.79297984006515e-07
8.81957958743094e-07
2.56381677094806e-05
0.000119878175649494
0.000192763994433069
0.000244352745616175
0.0002774140744712
0.000296643424295956
0.00030682860479856
0.000311763628681466
0.000313962834817305
0.000314869508157761
0.000315217384402496
0.000315342307501372
0.000315384505627928
0.000315397966222396
0.000315402025844151
0.000315403175818083
0.000315403469710721
0.000315403522992266
0.000315403514169985
0.000315403493020092
0.000315403470474325
0.000315403449303883
0.000315403430131075
0.000315403413072765
0.000315403398134952
0.000315403385326946
0.000315403374633769
0.000315403365896504
0.000315403358313041
0.000315403348623023
0.000315403323977855
0.000315403235363166
0.000315402904435979
0.000315401711016697
0.000315397598977075
0.000315384098356225
0.000315341989509322
0.000315217711494726
0.000314872276514249
0.000313972823565863
0.000311791505886672
0.000306894138394474
0.000296775808390449
0.000277643902410574
0.000244691842905281
0.000193179022490307
0.000120278894702778
2.58130026872899e-05
8.93356264561811e-07
8.91473216752971e-07
2.59294388294176e-05
0.000121239670289334
0.000194900088204725
0.000247027431310106
0.000280436355697892
0.000299873139340788
0.000310172646470413
0.000315165925713532
0.000317392655223159
0.000318311436075835
0.000318664295962779
0.000318791149302952
0.000318834055767685
0.000318847765222367
0.000318851910227603
0.000318853090008407
0.000318853395995949
0.00031885345545162
0.000318853450348059
0.000318853431819029
0.000318853411323846
0.000318853391775098
0.000318853373848396
0.000318853357683451
0.000318853343292195
0.000318853330675397
0.000318853319800402
0.000318853310493901
0.000318853301944458
0.000318853290850805
0.000318853264205506
0.000318853172595961
0.000318852836263633
0.000318851629882039
0.00031884747949316
0.000318833856711349
0.000318791361867818
0.000318665916338767
0.000318317154789363
0.00031740885592134
0.000315205738667036
0.000310258882063822
0.00030003756295788
0.000280709830709523
0.000247417863887508
0.000195365302227235
0.000121676699939704
2.61122494892169e-05
9.03089227874542e-07
8.9783039827955e-07
2.61256444108792e-05
0.000122163994251192
0.000196353657790688
0.000248850895662375
0.000282499898304625
0.000302080843469169
0.000312460341825422
0.00031749467758771
0.000319740955407162
0.000320668406194954
0.000321024865583823
0.000321153125734406
0.000321196553466678
0.000321210448046355
0.000321214657405024
0.00032121586006498
0.000321216175478029
0.000321216239961385
0.000321216238032147
0.000321216221739558
0.000321216203009832
0.000321216184879643
0.000321216168068777
0.00032121615273582
0.000321216138898633
0.000321216126553829
0.000321216115656549
0.000321216106020899
0.000321216096823609
0.000321216084732533
0.00032121605663715
0.00032121596284952
0.00032121562265674
0.000321214407280072
0.000321210230762844
0.000321196525253502
0.000321153769070156
0.000321027531759271
0.000320676509742735
0.000319762189310734
0.000317544212030035
0.000312563585909372
0.000302271940617955
0.000282810417836034
0.000249286103508471
0.000196864315889926
0.000122635587832784
2.63164297813763e-05
9.09678021130977e-07
9.01979283500767e-07
2.62547643832285e-05
0.000122777404551308
0.00019732094638097
0.000250066951082785
0.000283878410014358
0.000303557549821363
0.00031399191859011
0.000319054629526061
0.000321314525495844
0.000322248066799783
0.000322607076994564
0.000322736343259763
0.000322780147438006
0.000322794177168144
0.000322798434131385
0.000322799654025345
0.000322799976680472
0.000322800045169237
0.000322800045857815
0.000322800031428807
0.000322800014191122
0.00032279999728284
0.00032279998145858
0.000322799966891791
0.000322799953605708
0.000322799941594897
0.000322799930806937
0.000322799921045595
0.000322799911476499
0.000322799898744562
0.000322799869672518
0.000322799774388129
0.00032279943154997
0.000322798210114625
0.000322794016231959
0.000322780255988277
0.000322737326857481
0.00032261056462239
0.000322258040937704
0.000321339713009635
0.000319111831469302
0.000314108672249338
0.000303770059890007
0.000284219120180532
0.000250539402699744
0.000197870413430493
0.000123279488436952
2.64527786356699e-05
9.14043762559644e-07
9.04626954415843e-07
2.6337857586152e-05
0.000123175661360663
0.000197950915665538
0.000250860848854286
0.000284780068261743
0.000304524795193196
0.000314996083142445
0.000320078034634132
0.000322347240347802
0.000323284980951248
0.000323645765574466
0.000323775738250378
0.000323819809354931
0.000323833935976863
0.000323838227537338
0.000323839460207976
0.000323839788360499
0.000323839859983281
0.000323839862782991
0.000323839849885411
0.000323839833898635
0.000323839818038086
0.000323839803084842
0.000323839789223239
0.00032383977648094
0.00032383976485182
0.000323839754278651
0.000323839744557679
0.000323839734845317
0.000323839721769613
0.000323839692110526
0.000323839595876093
0.000323839251320737
0.000323838025948913
0.000323833820833215
0.000323820025230142
0.000323776984226545
0.000323649881693409
0.000323296382344184
0.0003223754456083
0.000320141106278583
0.000315123236089453
0.000304753928230754
0.000285144493816526
0.000251363011924724
0.000198531937679433
0.000123703090407871
2.65419748910662e-05
9.16877892213447e-07
9.06280608995962e-07
2.63901925893215e-05
0.00012342881421391
0.00019835273300239
0.000251368569364502
0.000285357895176549
0.000305145602806265
0.000315641269624567
0.000320736028137792
0.000323011482650385
0.000323952066488031
0.000324314063425989
0.000324444523294807
0.000324488780344836
0.000324502975232364
0.000324507291524397
0.000324508533532156
0.000324508865814326
0.000324508939871067
0.000324508944364426
0.000324508932725982
0.000324508917791678
0.00032450890283543
0.000324508888657682
0.000324508875450512
0.000324508863244858
0.000324508852034742
0.000324508841760066
0.000324508832211633
0.000324508822538873
0.000324508809358032
0.000324508779421735
0.000324508682662686
0.000324508337082187
0.000324507109275563
0.000324502897124158
0.000324489079258226
0.000324445967561289
0.000324318649321775
0.000323964529875738
0.000323041931397787
0.000320803471140044
0.000315776199290018
0.000305387248831286
0.000285740337236597
0.000251893571413593
0.000198958353094095
0.000123976309967556
2.6599183675518e-05
9.18682022895513e-07
9.07291965823732e-07
2.64224692926927e-05
0.000123586428480596
0.000198603842590509
0.000251686778782038
0.000285720855756909
0.000305536209581857
0.000316047682170217
0.000321150812749363
0.00032343038735175
0.000324372862578785
0.000324735673422665
0.000324866463520297
0.000324910847906015
0.000324925090099382
0.000324929423802274
0.000324930672544235
0.00032493100789862
0.000324931083845618
0.000324931089718937
0.000324931079128495
0.000324931065090674
0.000324931050925881
0.00032493103744882
0.000324931024856602
0.000324931013182375
0.000324931002420779
0.000324930992510063
0.000324930983237581
0.000324930973747456
0.000324930960647902
0.000324930930674623
0.000324930833714517
0.000324930487615574
0.000324929258419852
0.000324925042053643
0.000324911210597508
0.000324868055370281
0.000324740603612793
0.000324386098907445
0.000323462465041035
0.00032122143125489
0.000316188276954332
0.000305787016304254
0.000286116581089427
0.000252228771445615
0.000199227953589812
0.000124149178038791
2.66351810814339e-05
9.19808942698791e-07
9.07897370227635e-07
2.64419518910069e-05
0.00012368249687001
0.000198757524548299
0.000251882144979213
0.000285944245905814
0.000305777053171161
0.000316298587631677
0.000321407093879227
0.000323689337612107
0.000324633049396064
0.000324996397384678
0.000325127407562329
0.000325171877713066
0.000325186152174098
0.000325190497965307
0.000325191751512018
0.000325192089136338
0.000325192166565351
0.000325192173585166
0.000325192163881496
0.000325192150621051
0.000325192137162025
0.000325192124329539
0.00032519211232337
0.000325192101178122
0.000325192090889385
0.000325192081394713
0.000325192072479101
0.000325192063283082
0.000325192050409426
0.00032519202058392
0.000325191923667242
0.000325191577419234
0.000325190347559209
0.000325186128856738
0.000325172289475179
0.00032512910833986
0.000325001576292411
0.000324646838420928
0.000323722575058995
0.000321479971197573
0.000316443218156792
0.000306034408800253
0.000286349517937512
0.000252436432325608
0.000199395120851025
0.000124256462160555
2.66574038579146e-05
9.20499758358923e-07
9.08250846329752e-07
2.64534217086125e-05
0.000123739627146115
0.000198849342997493
0.000251999292857229
0.000286078575585784
0.000305922179835002
0.00031644999546237
0.000321561888760595
0.000323845830331149
0.00032479033629906
0.000325154032666921
0.000325285187038507
0.00032532971400615
0.000325344010138295
0.000325348364214387
0.000325349621160047
0.000325349960456421
0.000325350039059502
0.000325350047044118
0.000325350038099392
0.000325350025524051
0.000325350012705057
0.000325350000474579
0.00032534998903318
0.000325349978416391
0.000325349968620809
0.000325349959584102
0.000325349951089736
0.000325349942275691
0.000325349929741424
0.000325349900207354
0.000325349803521158
0.000325349457397712
0.000325348227383767
0.000325344007607248
0.000325330164005069
0.000325286968342641
0.000325159390183635
0.000324804516529016
0.000323879883167619
0.000321636350241939
0.000316597456757117
0.000306184139078865
0.000286490584465345
0.000252562300969682
0.000199496561606106
0.00012432164498727
2.66708419717751e-05
9.20914790448889e-07
9.08449482293628e-07
2.64599214835954e-05
0.000123772357958077
0.000198902263342557
0.000252067131083372
0.00028615664687833
0.00030600675229312
0.000316538391455882
0.000321652369284118
0.00032393736752183
0.0003248823731328
0.000325246291048238
0.000325377538132165
0.000325422102069632
0.000325436412517432
0.000325440772195995
0.000325442031527146
0.000325442372051959
0.00032544245159491
0.000325442460398546
0.000325442452102503
0.000325442440137991
0.000325442427906626
0.000325442416244651
0.000325442405351911
0.00032544239526441
0.000325442385979986
0.000325442377436685
0.000325442369417042
0.000325442361057414
0.000325442348955255
0.000325442319828936
0.000325442223522622
0.00032544187773648
0.00032544064794698
0.000325436427984125
0.000325422582669051
0.000325379380005143
0.000325251778010376
0.000324896831436866
0.00032397199447625
0.000321727941582693
0.000316687835217729
0.000306271938657547
0.000286573390740677
0.000252636292439105
0.000199556303410222
0.000124360113762547
2.66787463100431e-05
9.21157650647443e-07
9.08551737892132e-07
2.64632998828309e-05
0.000123789615853314
0.000198930456627666
0.000252103568595417
0.000286198842462547
0.000306052669089839
0.000316586533304032
0.000321701743917556
0.000323987377332658
0.000324932687583647
0.000325296742450153
0.000325428047629067
0.000325472635061515
0.000325486954766362
0.000325491318166964
0.000325492579152155
0.000325492920571145
0.000325493000881153
0.000325493010387807
0.000325493002625896
0.000325492991207849
0.000325492979519342
0.000325492968397216
0.000325492958039567
0.000325492948482724
0.00032549293972585
0.000325492931707376
0.000325492924209329
0.000325492916366783
0.00032549290477633
0.000325492876156926
0.000325492780356898
0.000325492435085981
0.000325491205828873
0.000325486986371322
0.000325473141211003
0.000325429936944029
0.00032530232662986
0.000324947349938542
0.000324022420682152
0.000321778117732476
0.00031673740405765
0.00030632017826964
0.000286619000362343
0.000252677180159688
0.000199589451019873
0.000124381560240786
2.6683156271179e-05
9.21292973832559e-07
9.08589774123197e-07
2.646458252262e-05
0.000123796407868208
0.000198941927500504
0.000252118777542432
0.000286216794278086
0.000306072472988026
0.000316607489301869
0.000321723361667959
0.000324009348503258
0.000324954832830148
0.000325318968062476
0.000325450308278161
0.00032549491033725
0.000325509236078486
0.000325513602105876
0.000325514864408274
0.000325515206628461
0.000325515287753035
0.00032551529801045
0.000325515290713832
0.000325515279858619
0.0003255152687294
0.000325515258159237
0.000325515248344682
0.000325515239323006
0.000325515231094299
0.00032551522359722
0.000325515216612771
0.000325515209274636
0.00032551519817812
0.00032551517004422
0.000325515074731491
0.000325514729981254
0.000325513501358766
0.000325509282830377
0.00032549543924073
0.000325452237678308
0.000325324631331998
0.000324969657558841
0.000324044719500102
0.000321800363737867
0.000316759475569051
0.000306341797708333
0.000286639624921081
0.00025269588205215
0.0001996048219534
0.000124391666833753
2.66852683196813e-05
9.21358566646875e-07
9.08576447280612e-07
2.6464185497866e-05
0.000123794848151521
0.000198940145498975
0.000252117242280331
0.000286215693860308
0.000306071811537541
0.000316607179098103
0.000321723292290028
0.000324009425491181
0.000324954989985089
0.000325319165760295
0.000325450525159331
0.000325495135985153
0.000325509465820027
0.000325513833974187
0.000325515097586555
0.000325515440728866
0.000325515522783533
0.000325515533864956
0.000325515527269808
0.00032551551707757
0.000325515506580817
0.000325515496610708
0.000325515487364248
0.000325515478880267
0.000325515471159503
0.000325515464140197
0.000325515457601448
0.000325515450674051
0.000325515439951096
0.000325515412155551
0.00032551531716254
0.000325514972770164
0.000325513744707001
0.000325509527370609
0.000325495686667409
0.000325452492103609
0.000325324901897335
0.000324969962799591
0.000324045093301139
0.000321800860902592
0.00031676017203238
0.000306342777673851
0.000286640947495542
0.000252697524866093
0.000199606605777741
0.000124393173282506
2.66856687741463e-05
9.2137323903133e-07
9.08508964823966e-07
2.64620336226865e-05
0.000123784667663282
0.000198924814457519
0.000252098718746164
0.000286195377103035
0.00030605059976664
0.00031658558134239
0.00032170155833206
0.00032398765722384
0.000324933222833412
0.000325297406384973
0.000325428772191191
0.000325473387095692
0.000325487719422428
0.00032549208921761
0.000325493354038247
0.000325493698114322
0.000325493781078841
0.000325493793047148
0.000325493787219314
0.000325493777720588
0.000325493767876165
0.000325493758516798
0.000325493749841273
0.000325493741890436
0.000325493734665426
0.000325493728103515
0.000325493721981345
0.000325493715426271
0.000325493705028648
0.000325493677515834
0.000325493582790162
0.00032549323874369
0.000325492011383268
0.000325487795873914
0.000325473960112123
0.000325430778445131
0.000325303220078493
0.000324948354880152
0.000324023646050181
0.000321779739771106
0.00031673966685366
0.00030632335188805
0.000286623272837621
0.000252682476413212
0.000199595193497599
0.000124386395231711
2.6684436915128e-05
9.21339634481497e-07
9.08369622193584e-07
2.64575676598564e-05
0.000123763196368685
0.000198891836200128
0.000252058194265873
0.000286150292940188
0.000306003000997425
0.000316536724833091
0.000321652133655462
0.00032393800127519
0.000324883483597751
0.000325247641212467
0.000325379000710128
0.000325423615107476
0.000325437948311029
0.000325442319169887
0.00032544358497639
0.000325443929887421
0.000325444013671483
0.000325444026465343
0.000325444021367493
0.000325444012526675
0.000325444003305
0.000325443994532611
0.000325443986410589
0.000325443978981949
0.000325443972248087
0.000325443966145472
0.000325443960448249
0.00032544395428034
0.00032544394423035
0.000325443917034763
0.000325443822640575
0.000325443479089308
0.000325442252834825
0.000325438040295612
0.000325424212689384
0.000325381052646061
0.00032525354872883
0.000324898812939648
0.000323974393231238
0.000321731091850682
0.000316692199646164
0.000306278027562549
0.000286581555366685
0.000252646381431479
0.000199567214434024
0.000124369272637503
2.66811754683504e-05
9.2124669067954e-07
9.08120313227525e-07
2.64495962698271e-05
0.000123724816764132
0.000198832515629956