/*--------------------------------*- C++ -*----------------------------------*\
  =========                 |
  \\      /  F ield         | OpenFOAM: The Open Source CFD Toolbox
   \\    /   O peration     | Website:  https://openfoam.org
    \\  /    A nd           | Version:  10
     \\/     M anipulation  |
\*---------------------------------------------------------------------------*/
FoamFile
{
    format      ascii;
    class       volScalarField;
    location    "4";
    object      nut;
}
// * * * * * * * * * * * * * * * * * * * * * * * * * * * * * * * * * * * * * //

dimensions      [0 2 -1 0 0 0 0];

internalField   nonuniform List<scalar> 
2500
(
1.5120893308309e-14
2.92506451840073e-13
1.22321484729878e-12
2.0400767006535e-12
2.64264286501327e-12
3.03293511353196e-12
3.25746741518384e-12
3.3733234615117e-12
3.4274457509094e-12
3.4505369741891e-12
3.45960680712213e-12
3.46290973027999e-12
3.46403145462465e-12
3.46438806144245e-12
3.46449403175967e-12
3.46452295719683e-12
3.46452955749212e-12
3.46453010532195e-12
3.464529304244e-12
3.46452831805482e-12
3.4645274028053e-12
3.4645266103557e-12
3.46452594431833e-12
3.46452539901599e-12
3.46452497559671e-12
3.46452468034911e-12
3.46452453108309e-12
3.46452453097611e-12
3.46452459908171e-12
3.46452470942085e-12
3.46452493499235e-12
3.46452516198621e-12
3.46452490356792e-12
3.46452212126115e-12
3.46450987941236e-12
3.46446571696584e-12
3.46431885223632e-12
3.46385873884989e-12
3.46249604203252e-12
3.45868932535894e-12
3.44870306487364e-12
3.42424180869309e-12
3.3686687713034e-12
3.25246062727254e-12
3.03069412110443e-12
2.64803553936907e-12
2.05681630780675e-12
1.24778116935762e-12
3.04955173810602e-13
1.62662940510759e-14
1.47999308824956e-12
7.51669109203895e-11
3.21208822331706e-10
5.36887351753454e-10
6.97140282653016e-10
8.01965019941262e-10
8.62960743510845e-10
8.94823618435805e-10
9.09899355110264e-10
9.16414612412095e-10
9.1900643819922e-10
9.19962102381199e-10
9.20290618066244e-10
9.20396313191665e-10
9.20428119453876e-10
9.2043694262764e-10
9.2043903031172e-10
9.20439262825004e-10
9.20439066095439e-10
9.20438805826148e-10
9.20438560993857e-10
9.20438348593023e-10
9.2043817017882e-10
9.20438024369691e-10
9.20437911180427e-10
9.20437832519455e-10
9.20437792251423e-10
9.20437792169922e-10
9.20437812701468e-10
9.20437842273202e-10
9.2043790291923e-10
9.20437958908832e-10
9.20437855627247e-10
9.20436974031893e-10
9.20433252091665e-10
9.20420036780708e-10
9.20376550762185e-10
9.20241655671756e-10
9.19846138415817e-10
9.18752676116858e-10
9.15914946420217e-10
9.0904099095606e-10
8.93601178140104e-10
8.61683235465346e-10
8.01454963345334e-10
6.98633429359138e-10
5.41273028030118e-10
3.27520371908211e-10
7.82649514314327e-11
1.58604039210484e-12
5.19561033650928e-12
1.33670112529688e-09
4.46651120228248e-07
7.43096810367175e-07
9.6164845939525e-07
1.10450339410982e-06
1.1879420113811e-06
1.23182855038185e-06
1.25277636586141e-06
1.26191898177373e-06
1.26559393818386e-06
1.26696341644191e-06
1.26743924995081e-06
1.26759402601029e-06
1.26764115955276e-06
1.267654442225e-06
1.26765769408811e-06
1.26765814417452e-06
1.26765791858875e-06
1.26765758677814e-06
1.2676572681319e-06
1.26765699005719e-06
1.26765675596632e-06
1.26765656446976e-06
1.26765641543192e-06
1.26765631126064e-06
1.26765625628978e-06
1.26765625443273e-06
1.26765628036342e-06
1.26765631669921e-06
1.26765639203171e-06
1.26765645526112e-06
1.26765626956143e-06
1.26765492038728e-06
1.26764943645855e-06
1.26763018912724e-06
1.26756733097252e-06
1.26737365157917e-06
1.26680958011866e-06
1.26526090474213e-06
1.26127060117569e-06
1.25167545255548e-06
1.23027929021435e-06
1.18634349972043e-06
1.10388298665998e-06
9.63526180542971e-07
7.4855983382192e-07
4.54516283697846e-07
1.3854708565857e-09
5.49958885974457e-12
9.10110584712742e-12
2.35805979660674e-09
7.86404136571421e-07
1.29878476038557e-06
1.67267975094443e-06
1.91568516424529e-06
2.05730719906287e-06
2.13181907866811e-06
2.16745556900508e-06
2.18305709728329e-06
2.18935228331194e-06
2.19170842370534e-06
2.19253101405202e-06
2.19280000116088e-06
2.19288242291527e-06
2.19290585125154e-06
2.19291169181993e-06
2.19291258347555e-06
2.19291225527364e-06
2.19291172708284e-06
2.19291121185053e-06
2.19291075975783e-06
2.19291037805811e-06
2.19291006508524e-06
2.19290982031076e-06
2.19290964724303e-06
2.19290955244735e-06
2.19290954295564e-06
2.19290957685806e-06
2.19290963665038e-06
2.19290975317888e-06
2.19290984782552e-06
2.19290951723067e-06
2.19290724395969e-06
2.19289806564994e-06
2.19286581025868e-06
2.19276025177021e-06
2.19243426326953e-06
2.19148283278971e-06
2.1888657959975e-06
2.18211236282639e-06
2.16585265240362e-06
2.12955600342185e-06
2.05493374523558e-06
1.91462515622952e-06
1.6750418933185e-06
1.30608344444176e-06
7.97018161561038e-07
2.42373342893429e-09
9.50600875210841e-12
1.27865433035841e-11
3.31571189814547e-09
1.09886480887246e-06
1.80357951890744e-06
2.31374310048219e-06
2.64388003919322e-06
2.83597885818188e-06
2.9370880130817e-06
2.98552976523875e-06
3.00679433178137e-06
3.01540331490621e-06
3.01863794002691e-06
3.01977213894743e-06
3.02014483751718e-06
3.02025970717563e-06
3.02029263130641e-06
3.02030098992429e-06
3.02030238761964e-06
3.02030203098006e-06
3.02030137267815e-06
3.02030071758415e-06
3.02030013872224e-06
3.02029964800553e-06
3.02029924414932e-06
3.02029892623015e-06
3.0202986979237e-06
3.02029856694012e-06
3.02029854081129e-06
3.02029857300025e-06
3.02029865003548e-06
3.02029878787467e-06
3.02029888723096e-06
3.02029840513887e-06
3.02029533819379e-06
3.02028306380099e-06
3.02023989755277e-06
3.02009836497222e-06
3.0196602803534e-06
3.01837882855271e-06
3.01484692019275e-06
3.00571683418347e-06
2.98370332034437e-06
2.93450177674478e-06
2.83322464928528e-06
2.64249740450316e-06
2.31600667707525e-06
1.81112244680667e-06
1.11000217282581e-06
3.38620759077433e-09
1.32310486148603e-11
1.61020401856058e-11
4.17842280483647e-09
1.37680530594306e-06
2.24813606423754e-06
2.87499152561385e-06
3.27933208573466e-06
3.514371106014e-06
3.638152724908e-06
3.69755696109391e-06
3.72369828652174e-06
3.73431405812623e-06
3.73831682945139e-06
3.73972598860434e-06
3.74019114842716e-06
3.74033531066556e-06
3.74037696248331e-06
3.74038772972757e-06
3.74038968480679e-06
3.7403893713589e-06
3.74038864776234e-06
3.74038790907208e-06
3.74038725042906e-06
3.74038668910977e-06
3.74038622467099e-06
3.74038585605017e-06
3.74038558651741e-06
3.74038542383627e-06
3.74038537365549e-06
3.7403853968499e-06
3.74038548029461e-06
3.74038561813035e-06
3.74038569403778e-06
3.74038504894586e-06
3.74038129174747e-06
3.74036643172941e-06
3.74031420645962e-06
3.74014274677311e-06
3.73961101999746e-06
3.7380526433248e-06
3.73374988332522e-06
3.72261019588646e-06
3.6957175323359e-06
3.63554790125932e-06
3.51157250654957e-06
3.27782040646485e-06
2.87693729000725e-06
2.25508862301767e-06
1.38723852604986e-06
4.24691990032872e-09
1.65500137398098e-11
1.8975513791968e-11
4.92871545526165e-09
1.6164953751256e-06
2.62851434418042e-06
3.35307750361302e-06
3.81934219365325e-06
4.09022392727053e-06
4.23298326036642e-06
4.30160604313211e-06
4.33187299234075e-06
4.34419851419486e-06
4.34886098429114e-06
4.35050839511556e-06
4.35105448427582e-06
4.35122460346365e-06
4.35127412863992e-06
4.35128715511652e-06
4.35128969625009e-06
4.35128948667072e-06
4.35128875506309e-06
4.35128798261552e-06
4.3512872861951e-06
4.35128668856461e-06
4.35128619065138e-06
4.35128579147482e-06
4.35128549358143e-06
4.35128530429044e-06
4.3512852265456e-06
4.35128523491396e-06
4.35128531144659e-06
4.35128542820334e-06
4.35128545706132e-06
4.35128464103212e-06
4.35128028187932e-06
4.35126327964406e-06
4.35120363710702e-06
4.35100766883544e-06
4.35039900511693e-06
4.34861222908588e-06
4.34367139435317e-06
4.33086315256687e-06
4.29990961295892e-06
4.23059505951138e-06
4.08766910491862e-06
3.81795014688808e-06
3.35476188628955e-06
2.63461226205468e-06
1.62571367908666e-06
4.99196995148418e-09
1.94076447791451e-11
2.13829164752001e-11
5.56022664502756e-09
1.81719641744449e-06
2.94513905330411e-06
3.74974981790686e-06
4.26666621796577e-06
4.56690475055728e-06
4.72526060314944e-06
4.80149698094166e-06
4.83519218508319e-06
4.8489485313264e-06
4.85416745834303e-06
4.85601760155851e-06
4.85663324021848e-06
4.85682593731156e-06
4.85688243083482e-06
4.85689752666747e-06
4.85690065830808e-06
4.85690060357253e-06
4.85689991008641e-06
4.85689914412525e-06
4.85689844395604e-06
4.85689783796754e-06
4.85689732878649e-06
4.8568969156452e-06
4.85689660024569e-06
4.85689638837737e-06
4.85689628180733e-06
4.85689626877544e-06
4.85689632271218e-06
4.85689640712263e-06
4.85689636958111e-06
4.85689537857536e-06
4.85689049876585e-06
4.85687174463415e-06
4.85680612447412e-06
4.85659042788455e-06
4.8559196761314e-06
4.85394795944891e-06
4.84848878631675e-06
4.83432140199334e-06
4.80005313308001e-06
4.72326319481154e-06
4.5648319853516e-06
4.2656640454883e-06
3.75140870532979e-06
2.95050940226291e-06
1.82518534428691e-06
5.61748000668074e-09
2.17918531007176e-11
2.333609978482e-11
6.07540330031587e-09
1.9805237883149e-06
3.20171691928693e-06
4.07049488082916e-06
4.62800976925972e-06
4.95183101504788e-06
5.12276522735206e-06
5.20517410401986e-06
5.24166612966276e-06
5.25659809745924e-06
5.26227784580902e-06
5.26429734034153e-06
5.26497164672792e-06
5.26518361596844e-06
5.26524615853981e-06
5.26526310724024e-06
5.26526681236609e-06
5.26526694477769e-06
5.26526632204049e-06
5.26526559200951e-06
5.2652649132489e-06
5.26526431979976e-06
5.26526381610161e-06
5.26526340175194e-06
5.26526307767953e-06
5.26526284795868e-06
5.26526271524687e-06
5.26526267309913e-06
5.26526269516641e-06
5.26526273763055e-06
5.2652626189799e-06
5.26526145574315e-06
5.26525613381214e-06
5.26523596874835e-06
5.26516561413859e-06
5.2649343296789e-06
5.26421442710183e-06
5.26209586948788e-06
5.2562239367252e-06
5.24097159328028e-06
5.20405243981752e-06
5.12127709738353e-06
4.95042303958513e-06
4.62765229787297e-06
4.07244786203949e-06
3.20670933993566e-06
1.98757035135488e-06
6.12747811971519e-09
2.37224988569637e-11
2.4872548548863e-11
6.48316719586191e-09
2.10978320074289e-06
3.40421602699882e-06
4.32331194109693e-06
4.91269852406755e-06
5.2550891698194e-06
5.43597175406863e-06
5.52328964594107e-06
5.56202036512443e-06
5.5779001522015e-06
5.58395437371071e-06
5.58611268028231e-06
5.58683554188773e-06
5.58706364804282e-06
5.58713133952406e-06
5.58714991034323e-06
5.58715415196252e-06
5.58715448568356e-06
5.58715395288665e-06
5.58715327785351e-06
5.5871526371998e-06
5.58715207042003e-06
5.58715158378747e-06
5.58715117736454e-06
5.58715085156583e-06
5.58715060914542e-06
5.5871504525232e-06
5.58715037722786e-06
5.58715036380796e-06
5.58715036022774e-06
5.58715014978465e-06
5.58714882191144e-06
5.58714313664017e-06
5.58712185466525e-06
5.58704782018124e-06
5.58680446224266e-06
5.58604643901789e-06
5.58381369367941e-06
5.57761993167391e-06
5.56151975404289e-06
5.52252568880303e-06
5.4350606546135e-06
5.25446840898295e-06
4.91319321216655e-06
4.32588013540005e-06
3.40925940020231e-06
2.11631110543549e-06
6.53169893051423e-09
2.52416119275789e-11
2.60456201402081e-11
6.79659311300547e-09
2.20932603893081e-06
3.55992565271721e-06
4.51761128438994e-06
5.13149376954122e-06
5.48820932031326e-06
5.67680388037029e-06
5.76794952160361e-06
5.8084374605022e-06
5.82506669115051e-06
5.83141937722546e-06
5.83368928127528e-06
5.83445155547873e-06
5.83469291077674e-06
5.83476489712245e-06
5.8347848543413e-06
5.83478958220809e-06
5.83479011894789e-06
5.83478968220953e-06
5.83478907204731e-06
5.83478847876923e-06
5.83478794682797e-06
5.83478748427084e-06
5.83478709171705e-06
5.83478676929211e-06
5.83478651871542e-06
5.83478634160653e-06
5.83478623471979e-06
5.8347861818176e-06
5.83478612260804e-06
5.83478582441517e-06
5.8347843612597e-06
5.83477837550044e-06
5.83475622536192e-06
5.83467938728178e-06
5.83442687252651e-06
5.83363991339313e-06
5.8313202898099e-06
5.82488106833934e-06
5.80813291383558e-06
5.76755067023535e-06
5.67649278984417e-06
5.4884371045406e-06
5.13297954543881e-06
4.52105792364957e-06
3.56542172885834e-06
2.21577063863324e-06
6.84342855768149e-09
2.64042848898933e-11
2.69157892222242e-11
7.03076367989723e-09
2.28396512988169e-06
3.67662736201744e-06
4.66325297888599e-06
5.29556227878564e-06
5.66310007988996e-06
5.85755189013499e-06
5.95162260257726e-06
5.99346259526108e-06
6.01067279641764e-06
6.01725872569653e-06
6.01961660185233e-06
6.02041024385453e-06
6.020662263213e-06
6.02073775878771e-06
6.02075887023669e-06
6.02076402973187e-06
6.02076476647311e-06
6.02076441662495e-06
6.02076387357983e-06
6.0207633309663e-06
6.02076283724976e-06
6.02076240210264e-06
6.02076202673903e-06
6.0207617111765e-06
6.02076145638782e-06
6.02076126322555e-06
6.02076112883541e-06
6.02076103721138e-06
6.02076092618972e-06
6.02076055307504e-06
6.02075897170606e-06
6.02075274393509e-06
6.02072993190278e-06
6.02065100210449e-06
6.02039169291179e-06
6.01958325451412e-06
6.01719900593517e-06
6.01057678213106e-06
5.99334459587217e-06
5.95157433042977e-06
5.85782655906725e-06
5.66418113288663e-06
5.29810153473257e-06
4.66775018868312e-06
3.6828853256706e-06
2.29069237085863e-06
7.07755302708941e-09
2.72707454005315e-11
2.75435736762535e-11
7.20098674577261e-09
2.33849376217046e-06
3.76192328360283e-06
4.76977190262857e-06
5.41564645483509e-06
5.79118997901851e-06
5.98999941694022e-06
6.08626033627977e-06
6.12911989248822e-06
6.14677155685387e-06
6.15353617708451e-06
6.15596204287915e-06
6.15678016069304e-06
6.15704059380291e-06
6.15711889828702e-06
6.15714095035759e-06
6.15714647776789e-06
6.15714738620206e-06
6.15714712792377e-06
6.15714664947806e-06
6.15714615650527e-06
6.15714570091598e-06
6.15714529381564e-06
6.15714493699494e-06
6.15714463048659e-06
6.15714437477439e-06
6.15714417005888e-06
6.15714401343052e-06
6.15714388903818e-06
6.1571437332923e-06
6.15714329622757e-06
6.15714161683347e-06
6.15713519907937e-06
6.15711189284409e-06
6.15703143600226e-06
6.15676719730157e-06
6.15594317461164e-06
6.15351194865262e-06
6.14675641145078e-06
6.12917097039359e-06
6.08653249141713e-06
5.99081727056682e-06
5.79308177182106e-06
5.41922933194264e-06
4.77539183877596e-06
3.76913213513314e-06
2.34576039096822e-06
7.24896553797157e-09
2.79001303023218e-11
2.79845503787768e-11
7.32149858734069e-09
2.37733643401498e-06
3.82275481485022e-06
4.84582529098734e-06
5.50147344228652e-06
5.88281587649771e-06
6.08480094375682e-06
6.18266873602679e-06
6.22628178718938e-06
6.24426227120154e-06
6.25116109900983e-06
6.25363848273768e-06
6.25447532518701e-06
6.25474226587346e-06
6.25482277333065e-06
6.25484557877617e-06
6.25485140704267e-06
6.25485246368594e-06
6.25485228873186e-06
6.2548518693059e-06
6.25485142219828e-06
6.25485100236535e-06
6.25485062214817e-06
6.25485028386434e-06
6.25484998763284e-06
6.25484973363825e-06
6.25484952158352e-06
6.2548493483171e-06
6.25484919793212e-06
6.25484900577154e-06
6.2548485170315e-06
6.25484675969443e-06
6.25484019699266e-06
6.2548165299772e-06
6.25473498301319e-06
6.2544672485585e-06
6.25363217664338e-06
6.2511675857612e-06
6.24431717132903e-06
6.22647987686797e-06
6.18322157652895e-06
6.08610055833562e-06
5.88544122144874e-06
5.50603122270475e-06
4.8525500220151e-06
3.83098535016666e-06
2.38528320260402e-06
7.37142624080258e-09
2.83462183712871e-11
2.82864748011799e-11
7.40467781401074e-09
2.40433682300604e-06
3.86511658776088e-06
4.8988680948056e-06
5.56140955273718e-06
5.94686569046296e-06
6.15111801477498e-06
6.2501410921063e-06
6.29429996999878e-06
6.31252056271245e-06
6.31951822299903e-06
6.32203388605326e-06
6.32288477581366e-06
6.32315665173577e-06
6.32323885246284e-06
6.32326224901893e-06
6.32326831714377e-06
6.32326949622836e-06
6.32326939502159e-06
6.32326902757095e-06
6.32326862112925e-06
6.32326823345673e-06
6.32326787795162e-06
6.32326755738454e-06
6.32326727199212e-06
6.32326702178954e-06
6.32326680612922e-06
6.32326662157417e-06
6.32326645203259e-06
6.32326623203608e-06
6.32326570363069e-06
6.32326388690158e-06
6.32325721700841e-06
6.32323329293179e-06
6.32315098544679e-06
6.32288082836406e-06
6.3220381015812e-06
6.31955035721701e-06
6.31263397218034e-06
6.29462125055613e-06
6.25093063371749e-06
6.15282817637623e-06
5.95012642002675e-06
5.56683291021602e-06
4.90661086975663e-06
3.87434237412946e-06
2.41300367713759e-06
7.45688310478419e-09
2.86550510306697e-11
2.84881894391112e-11
7.46070843095745e-09
2.4226673669348e-06
3.8939427494255e-06
4.93502974256849e-06
5.6023322596642e-06
5.99064730515676e-06
6.1964859580823e-06
6.2963232388458e-06
6.34086978478769e-06
6.35926231342739e-06
6.36633135644891e-06
6.36887491835548e-06
6.3697361455188e-06
6.37001169270677e-06
6.37009516964497e-06
6.37011901992414e-06
6.37012527496903e-06
6.37012655375925e-06
6.37012651550354e-06
6.37012619240453e-06
6.3701258209742e-06
6.37012546143365e-06
6.37012512805712e-06
6.37012482398957e-06
6.37012454958512e-06
6.37012430477664e-06
6.37012408867447e-06
6.37012389759204e-06
6.37012371520289e-06
6.37012347542626e-06
6.37012291826383e-06
6.37012105834054e-06
6.37011431188965e-06
6.37009020942913e-06
6.37000738378526e-06
6.36973558610885e-06
6.36888767662066e-06
6.36638423020333e-06
6.35942301719513e-06
6.34129088021379e-06
6.29730556995059e-06
6.19853341969014e-06
5.9944370047765e-06
5.60849025703402e-06
4.94366046785789e-06
3.90406974927256e-06
2.43201966761863e-06
7.51519106735814e-09
2.8864114859657e-11
2.86198335534389e-11
7.49758117532593e-09
2.43483203997097e-06
3.91312525556306e-06
4.95914559465598e-06
5.62966981603789e-06
6.01993218011477e-06
6.22685897991773e-06
6.32725897492404e-06
6.37207558542187e-06
6.39058889646047e-06
6.39770852509908e-06
6.40027203949924e-06
6.40114073205194e-06
6.40141895944138e-06
6.40150338043768e-06
6.40152757248882e-06
6.40153397115338e-06
6.40153532937607e-06
6.40153534303507e-06
6.40153505689336e-06
6.40153471505222e-06
6.40153437974375e-06
6.40153406593297e-06
6.40153377705958e-06
6.40153351358432e-06
6.40153327539943e-06
6.40153306146529e-06
6.40153286789031e-06
6.40153267812782e-06
6.40153242564217e-06
6.40153184911138e-06
6.40152995950551e-06
6.40152316059355e-06
6.40149893798216e-06
6.40141576796083e-06
6.40114288483699e-06
6.40029154559383e-06
6.39777768930007e-06
6.39078669640911e-06
6.37257508596174e-06
6.32839336230884e-06
6.22917435355135e-06
6.02414652510072e-06
5.63642653196548e-06
4.9685149110715e-06
3.92402188594397e-06
2.44478900191976e-06
7.5541281663128e-09
2.9002639869015e-11
2.87038437277094e-11
7.52130997869922e-09
2.44272992919329e-06
3.92561826670415e-06
4.97488949411411e-06
5.64755072868017e-06
6.03911376066062e-06
6.24677271043131e-06
6.34755426802568e-06
6.39255550164661e-06
6.41115208974744e-06
6.41830690740955e-06
6.42088443077894e-06
6.42175841680172e-06
6.42203856567292e-06
6.42212367277469e-06
6.4221481182032e-06
6.42215462588807e-06
6.42215604626234e-06
6.42215610178787e-06
6.42215584601644e-06
6.4221555289825e-06
6.42215521445198e-06
6.42215491791467e-06
6.42215464302609e-06
6.42215439033485e-06
6.42215415971945e-06
6.42215395004495e-06
6.42215375727064e-06
6.42215356466709e-06
6.42215330536416e-06
6.42215271719162e-06
6.42215080874527e-06
6.42214397577929e-06
6.42211967510307e-06
6.42203628231823e-06
6.42176269797841e-06
6.42090914017312e-06
6.41838853538881e-06
6.41137819397515e-06
6.39311484793133e-06
6.34880505902511e-06
6.24929431511397e-06
6.04365776016225e-06
5.65477775076178e-06
4.98484802620035e-06
3.9371406718645e-06
2.45318951766986e-06
7.57959981943005e-09
2.90925663916671e-11
2.87563136262066e-11
7.53625513588661e-09
2.44775021784747e-06
3.93358672787296e-06
4.98495812635496e-06
5.65900964500186e-06
6.05142503011511e-06
6.25956743920994e-06
6.36060297407007e-06
6.40572812831162e-06
6.42438110094537e-06
6.43155996019e-06
6.43414714515644e-06
6.43502481869491e-06
6.43530632135348e-06
6.43539191891165e-06
6.43541654950669e-06
6.43542313908764e-06
6.43542460773047e-06
6.43542469684331e-06
6.4354244660422e-06
6.43542416988022e-06
6.43542387328323e-06
6.43542359212504e-06
6.4354233302148e-06
6.43542308816598e-06
6.43542286586004e-06
6.43542266210512e-06
6.43542247275255e-06
6.43542228093441e-06
6.43542201954655e-06
6.43542142587665e-06
6.4354195070266e-06
6.43541265373096e-06
6.43538830477013e-06
6.43530477246019e-06
6.43503074662572e-06
6.4341757869007e-06
6.43165090444099e-06
6.42462826587574e-06
6.40633196578192e-06
6.36194045462341e-06
6.2622432660467e-06
6.05621717795807e-06
5.66659395711399e-06
4.99536958418033e-06
3.94559694390094e-06
2.45860775436529e-06
7.59593678258632e-09
2.91498108974724e-11
2.8788403366022e-11
7.54547223335391e-09
2.45087585358952e-06
3.9385664609175e-06
4.99126851041517e-06
5.66620748618815e-06
6.05917112157766e-06
6.26762697445371e-06
6.3688285357265e-06
6.41403539555985e-06
6.43272587642517e-06
6.43992087629551e-06
6.44251461006028e-06
6.44339480880741e-06
6.44367724959455e-06
6.44376319243033e-06
6.44378795657267e-06
6.44379460707947e-06
6.44379611320857e-06
6.44379622968784e-06
6.44379601967002e-06
6.44379574128651e-06
6.44379546038518e-06
6.4437951931226e-06
6.44379494340768e-06
6.44379471189783e-06
6.44379449848667e-06
6.44379430194961e-06
6.44379411806956e-06
6.44379392987336e-06
6.4437936700976e-06
6.44379307569436e-06
6.4437911528572e-06
6.44378428928035e-06
6.44375991277255e-06
6.44367629687962e-06
6.44340200154042e-06
6.44254617857386e-06
6.44001864834036e-06
6.43298836975272e-06
6.41467153700507e-06
6.37022899051504e-06
6.27041514773086e-06
6.06414493757879e-06
5.67405522229504e-06
5.00201691347066e-06
3.95094337485465e-06
2.4620358921773e-06
7.60621640083449e-09
2.91855674465624e-11
2.88076122136621e-11
7.55103571299763e-09
2.45278095599758e-06
3.94161407969038e-06
4.99514275663043e-06
5.67063746759301e-06
6.06394721792669e-06
6.2726026057612e-06
6.3739107710619e-06
6.41917056211367e-06
6.43788556504775e-06
6.44509121701661e-06
6.44768931518869e-06
6.44857121474509e-06
6.44885429543469e-06
6.44894047799524e-06
6.44896533742141e-06
6.44897203294383e-06
6.44897356846323e-06
6.44897370767903e-06
6.44897351524713e-06
6.44897325228006e-06
6.44897298537505e-06
6.44897273089529e-06
6.44897249280255e-06
6.4489722717831e-06
6.44897206774941e-06
6.44897187946308e-06
6.44897170266027e-06
6.44897152029665e-06
6.44897126500078e-06
6.44897067352815e-06
6.44896875155231e-06
6.4489618850195e-06
6.44893749533836e-06
6.44885383311632e-06
6.44857938061219e-06
6.44772304387476e-06
6.44519392144693e-06
6.4381590190387e-06
6.41982970301224e-06
6.37535602094693e-06
6.27547081284535e-06
6.06905090695183e-06
5.67867452668968e-06
5.00613497861376e-06
3.9542584240356e-06
2.46416341654446e-06
7.61256239256211e-09
2.92074863873811e-11
2.88188273656791e-11
7.55431098007322e-09
2.45391386603364e-06
3.94343486632019e-06
4.99746583399028e-06
5.67330126651036e-06
6.06682512578152e-06
6.27560507237553e-06
6.3769804048832e-06
6.42227386518047e-06
6.44100461736428e-06
6.4482171779718e-06
6.45081813563355e-06
6.45170116192135e-06
6.45198467237025e-06
6.45207101922868e-06
6.45209594605983e-06
6.45210267474114e-06
6.45210423354383e-06
6.45210439189295e-06
6.45210421451196e-06
6.45210396513144e-06
6.45210371091916e-06
6.45210346837806e-06
6.45210324148551e-06
6.45210303094614e-06
6.45210283669239e-06
6.45210265748817e-06
6.45210248903928e-06
6.45210231425075e-06
6.45210206568544e-06
6.45210147999242e-06
6.45209956258744e-06
6.45209269852505e-06
6.45206830579206e-06
6.45198462227225e-06
6.45171008607415e-06
6.45085346126526e-06
6.44832342444433e-06
6.44128582944442e-06
6.42294917627637e-06
6.37845707070036e-06
6.27852941715132e-06
6.07202011021671e-06
5.68147192567005e-06
5.00863099958494e-06
3.95627003291765e-06
2.46545601862135e-06
7.61639974514838e-09
2.92206547037877e-11
2.88251294344324e-11
7.55616695050463e-09
2.45456290366706e-06
3.94448425408123e-06
4.99881103825089e-06
5.67484939006661e-06
6.06850216673577e-06
6.2773579341323e-06
6.37877460320584e-06
6.42408901752192e-06
6.44282967783499e-06
6.45004663184788e-06
6.45264942805384e-06
6.45353318748013e-06
6.45381698182025e-06
6.45390343978094e-06
6.4539284139189e-06
6.45393516696166e-06
6.4539367444032e-06
6.45393691899462e-06
6.45393675447791e-06
6.453936517211e-06
6.45393627465222e-06
6.45393604338534e-06
6.45393582737347e-06
6.4539356273306e-06
6.45393544321385e-06
6.45393527379455e-06
6.45393511476008e-06
6.45393494898327e-06
6.45393470898728e-06
6.45393413138055e-06
6.45393222150918e-06
6.45392536413619e-06
6.45390097585482e-06
6.45381728864166e-06
6.45354271848098e-06
6.45268595484339e-06
6.45015544538674e-06
6.443116404473e-06
6.4247757140918e-06
6.38027329790653e-06
6.28032159368157e-06
6.07376114895018e-06
5.68311394975869e-06
5.01009823021463e-06
3.95745469857593e-06
2.46621884708567e-06
7.61865681568678e-09
2.92283599997234e-11
2.88283733509458e-11
7.55713154873477e-09
2.45490509370233e-06
3.94504327282611e-06
4.99953352645425e-06
5.67568605274393e-06
6.06941261680929e-06
6.27831250504013e-06
6.37975361949933e-06
6.42508062915652e-06
6.44382733044077e-06
6.45104700020272e-06
6.45365094844676e-06
6.45453517378828e-06
6.45481915170101e-06
6.45490568347256e-06
6.45493069041177e-06
6.45493746118712e-06
6.45493905384043e-06
6.45493924237365e-06
6.45493908844953e-06
6.4549388620198e-06
6.45493863022668e-06
6.45493840966574e-06
6.45493820426549e-06
6.45493801474633e-06
6.45493784109163e-06
6.45493768208037e-06
6.45493753338988e-06
6.45493737786751e-06
6.45493714801937e-06
6.45493658046546e-06
6.45493468063448e-06
6.45492783347925e-06
6.45490345575648e-06
6.4548197785661e-06
6.45454521148067e-06
6.45368841607181e-06
6.45115774168852e-06
6.44411810366082e-06
6.42577558335518e-06
6.38126820925366e-06
6.28130446358075e-06
6.07471766328108e-06
5.68401831694267e-06
5.01090897144254e-06
3.95811196756639e-06
2.46664410176993e-06
7.61991599590117e-09
2.92326531425641e-11
2.88295795849098e-11
7.55749766035041e-09
2.45503973204383e-06
3.94527066490596e-06
4.99983502526216e-06
5.676041930709e-06
6.06980521495216e-06
6.27872794602097e-06
6.38018218156178e-06
6.42551619895711e-06
6.44426635196022e-06
6.45148761531396e-06
6.45409225832236e-06
6.45497677370867e-06
6.45526087132429e-06
6.45534745518649e-06
6.45537248824709e-06
6.45537927491114e-06
6.45538088371837e-06
6.45538108714021e-06
6.45538094244352e-06
6.4553807271756e-06
6.45538050647392e-06
6.45538029685919e-06
6.45538010222926e-06
6.45537992332321e-06
6.45537976014279e-06
6.45537961147154e-06
6.45537947296638e-06
6.45537932744719e-06
6.4553791073945e-06
6.45537854946881e-06
6.45537665930168e-06
6.4553698224724e-06
6.45534545733554e-06
6.45526179857356e-06
6.45498726264286e-06
6.45413052088822e-06
6.45159992525027e-06
6.44456034525379e-06
6.42621765080426e-06
6.38170923037665e-06
6.28174202654389e-06
6.07514626577537e-06
5.68442719860641e-06
5.01127973953015e-06
3.95841670249843e-06
2.46684447213074e-06
7.62051896054978e-09
2.9234733738507e-11
2.88291560670486e-11
7.55738410972215e-09
2.4550087449561e-06
3.94523523567874e-06
4.99980446516632e-06
5.67601997872252e-06
6.06979195927319e-06
6.27872165125023e-06
6.38018066036149e-06
6.42551757934455e-06
6.44426932173419e-06
6.45149138894018e-06
6.45409641231952e-06
6.45498110154119e-06
6.45526528033246e-06
6.45535190636933e-06
6.45537696540783e-06
6.4553837703587e-06
6.45538539761089e-06
6.45538561737394e-06
6.45538548658838e-06
6.45538528446815e-06
6.45538507630916e-06
6.45538487859435e-06
6.45538469523053e-06
6.4553845269877e-06
6.45538437388052e-06
6.45538423468417e-06
6.45538410501789e-06
6.4553839676442e-06
6.45538375499974e-06
6.45538320378412e-06
6.45538131995751e-06
6.45537449022524e-06
6.45535013618112e-06
6.45526650105988e-06
6.45499202237735e-06
6.45413541943382e-06
6.4516051439309e-06
6.4445662517522e-06
6.42622491735791e-06
6.38171894440252e-06
6.28175569519098e-06
6.07516556133662e-06
5.68445329743811e-06
5.0113122044515e-06
3.95845198781982e-06
2.46687429072198e-06
7.62063314482996e-09
2.92351986276863e-11
2.8827014190096e-11
7.55676942603276e-09
2.45480679704717e-06
3.94493111182445e-06
4.99943700611226e-06
5.67561694237728e-06
6.06937116470321e-06
6.27829319735282e-06
6.37974950308955e-06
6.42508574064156e-06
6.44383750472915e-06
6.45105972598569e-06
6.45366487636832e-06
6.45454964645532e-06
6.45483387465697e-06
6.45492053323552e-06
6.45494561623503e-06
6.45495243970355e-06
6.45495408499931e-06
6.45495432235048e-06
6.4549542067818e-06
6.45495401841488e-06
6.4549538231925e-06
6.45495363758955e-06
6.45495346554815e-06
6.45495330787833e-06
6.45495316460263e-06
6.45495303447708e-06
6.45495291307213e-06
6.45495278308214e-06
6.45495257688949e-06
6.45495203128085e-06
6.45495015275597e-06
6.45494332988363e-06
6.45491898977635e-06
6.45483539088952e-06
6.45456101020767e-06
6.45370466304371e-06
6.45117501901879e-06
6.44413759251923e-06
6.42579944480233e-06
6.38129994022312e-06
6.2813489084126e-06
6.07478018499369e-06
5.68410265708048e-06
5.01101366040198e-06
3.9582255776679e-06
2.46673981718915e-06
7.6202811889433e-09
2.92341316883998e-11
2.88225921880236e-11
7.55549390780894e-09
2.45438093815681e-06
3.94427702134065e-06
4.99863324044765e-06
5.67472273702832e-06
6.06842708255495e-06
6.2773241678663e-06
6.37876920381468e-06
6.42410085391628e-06
6.44285096588988e-06
6.4500726726215e-06
6.45267769783821e-06
6.45356245784768e-06
6.45384670343135e-06
6.45393338310205e-06
6.45395848565203e-06
6.45396532567872e-06
6.45396698722711e-06
6.45396724095011e-06
6.45396713985802e-06
6.45396696453832e-06
6.4539667816659e-06
6.45396660770354e-06
6.45396644663888e-06
6.45396629932495e-06
6.4539661657894e-06
6.45396604477232e-06
6.45396593179469e-06
6.45396580948271e-06
6.45396561018411e-06
6.45396507086655e-06
6.45396319891551e-06
6.4539563858639e-06
6.45393206768938e-06
6.45384852770614e-06
6.45357430876574e-06
6.45271839044604e-06
6.45018982627945e-06
6.44315496628775e-06
6.42482255263534e-06
6.38033504497366e-06
6.28040743047288e-06
6.07388120782383e-06
5.68327521730492e-06
5.0102977370421e-06
3.95767062722787e-06
2.46640019826449e-06
7.61934964321186e-09
2.92311819131196e-11
2.88146809514866e-11
7.55321734398466e-09
2.45361976609161e-06
3.94310052947189e-06