/*--------------------------------*- C++ -*----------------------------------*\
  =========                 |
  \\      /  F ield         | OpenFOAM: The Open Source CFD Toolbox
   \\    /   O peration     | Website:  https://openfoam.org
    \\  /    A nd           | Version:  10
     \\/     M anipulation  |
\*---------------------------------------------------------------------------*/
FoamFile
{
    format      ascii;
    class       volScalarField;
    location    "4";
    object      omega;
}
// * * * * * * * * * * * * * * * * * * * * * * * * * * * * * * * * * * * * * //

dimensions      [0 0 -1 0 0 0 0];

internalField   nonuniform List<scalar> 
2500
(
128210.357314543
128225.157556295
128219.41907188
128216.41398228
128215.052781345
128214.465213015
128214.221519029
128214.124735378
128214.087970401
128214.074982945
128214.069909044
128214.067965215
128214.067170639
128214.066518089
128214.065984215
128214.065410336
128214.065125945
128214.064768812
128214.064362574
128214.064084313
128214.063838355
128214.063617555
128214.063430797
128214.063325165
128214.063208258
128214.063094143
128214.063053745
128214.063023388
128214.063015766
128214.063050435
128214.063111647
128214.063229532
128214.063387935
128214.063590208
128214.063809023
128214.064065462
128214.064392764
128214.064770179
128214.065747831
128214.067751411
128214.073015823
128214.087431717
128214.126213391
128214.226136551
128214.473539326
128215.058719118
128216.409674437
128219.416898378
128225.228613988
128210.311235625
31885.8794447298
14168.3295815337
14165.6589683275
14164.2071252127
14163.4981502286
14163.1678509769
14163.0207971116
14162.9589518946
14162.9345567482
14162.9255550297
14162.9224076907
14162.9213660612
14162.9210377611
14162.9209227793
14162.9208721788
14162.9208384138
14162.9208204671
14162.9208012674
14162.9207796348
14162.9207624958
14162.9207454436
14162.9207273642
14162.9207111512
14162.9207024047
14162.9206952485
14162.9206869032
14162.9206837582
14162.9206810571
14162.9206766297
14162.9206786236
14162.9206809711
14162.9206825084
14162.9206982194
14162.9207195755
14162.9207336291
14162.9207525776
14162.9208000174
14162.9209301541
14162.9213365096
14162.9225510185
14162.9260874171
14162.9358920091
14162.9615758731
14163.024989649
14163.172845678
14163.5010263546
14164.2046861107
14165.659942263
14168.3741767434
31885.8939112121
31749.8286474783
3526.68977017294
50.7725448340814
50.7662139767049
50.7631313966267
50.761696169641
50.7610559313174
50.7607854891054
50.7606781978055
50.7606383302719
50.7606243804469
50.7606197877046
50.760618374954
50.7606179418297
50.7606177994162
50.7606177382718
50.7606177131203
50.7606176885102
50.760617657881
50.7606176308163
50.7606175986335
50.7606175577771
50.7606175175601
50.7606174958121
50.7606174826062
50.7606174645471
50.7606174591643
50.7606174534972
50.7606174357597
50.7606174358249
50.7606174357494
50.760617427769
50.7606174741703
50.7606175374365
50.7606175581851
50.7606175957462
50.7606177623038
50.7606182975492
50.7606200121303
50.7606252713948
50.7606406818768
50.7606834388234
50.7607952941637
50.7610710176833
50.7617132726688
50.763140270098
50.7662078368631
50.772577093274
3526.70929526703
31750.0759786892
31648.8251461727
3515.54865144409
50.6142415531562
50.6092346606241
50.6068936310593
50.6058442040574
50.6053897113664
50.6052016112145
50.6051279656714
50.6051008174228
50.605091369422
50.6050882785693
50.6050873448439
50.6050870734409
50.6050869955971
50.6050869738452
50.605086972683
50.6050869710593
50.6050869653379
50.6050869575265
50.6050869447152
50.6050869232386
50.6050868987759
50.6050868845537
50.6050868788292
50.6050868700534
50.6050868679577
50.6050868661362
50.6050868564957
50.6050868557363
50.6050868537493
50.6050868413595
50.6050868680904
50.6050869050545
50.6050869112433
50.6050869252376
50.6050870142993
50.6050873424779
50.6050884325777
50.6050918449632
50.6051019962665
50.6051305783754
50.6052065460684
50.6053974319562
50.6058532053746
50.6068993698589
50.6092394862481
50.6143032978307
3515.57102743689
31649.2579123687
31584.4650875799
3508.66416195094
50.5184142648791
50.5152366619452
50.5138065036666
50.5131878120525
50.5129270272192
50.5128209251911
50.5127797546592
50.5127646273579
50.5127593614295
50.5127576397956
50.5127571253774
50.5127569808324
50.5127569499684
50.5127569496032
50.5127569528903
50.5127569568391
50.5127569581938
50.5127569576233
50.5127569549924
50.5127569459423
50.512756932801
50.5127569244827
50.512756923304
50.5127569216113
50.5127569217868
50.5127569213636
50.5127569173107
50.5127569168072
50.5127569143084
50.5127569030476
50.5127569153286
50.5127569305533
50.5127569293632
50.5127569345967
50.5127569756325
50.5127571414411
50.5127577151648
50.5127595420457
50.5127650310777
50.5127806354646
50.5128225735649
50.5129295478964
50.5131905222212
50.5138079298496
50.5152421866068
50.5184712929907
3508.68315450332
31584.9195405894
31548.3242662387
3504.92581580048
50.4673719043834
50.4656475439089
50.4648969181851
50.4645822802215
50.464452812481
50.4644008820588
50.4643808497167
50.4643734899118
50.4643709187004
50.4643700757987
50.4643698256774
50.4643697596481
50.4643697506078
50.4643697537692
50.4643697582684
50.4643697624648
50.4643697645731
50.4643697648059
50.4643697649404
50.4643697627326
50.4643697563589
50.4643697524834
50.4643697533211
50.4643697539688
50.4643697545423
50.4643697546362
50.4643697532336
50.4643697527055
50.4643697506147
50.4643697432275
50.4643697480287
50.4643697533562
50.4643697516552
50.4643697528946
50.4643697682803
50.4643698416695
50.4643701083269
50.4643709699446
50.4643735747041
50.4643810184042
50.4644011617349
50.4644531155476
50.4645821693638
50.4648958087903
50.4656495884721
50.4674086114322
3504.9387590837
31548.6836807057
31530.0835709413
3503.10378541399
50.4429302648473
50.4421009210178
50.4417501002928
50.4416070339648
50.4415494095835
50.4415265743494
50.4415177989939
50.4415145686987
50.44151343407
50.4415130604585
50.4415129503356
50.4415129238917
50.4415129222124
50.4415129243927
50.4415129275406
50.4415129303582
50.4415129321217
50.4415129324644
50.4415129330764
50.441512932867
50.4415129301694
50.4415129287836
50.4415129297205
50.441512930452
50.4415129308449
50.4415129310353
50.4415129305844
50.4415129302221
50.4415129289613
50.4415129249197
50.4415129264623
50.4415129279329
50.4415129263726
50.4415129269581
50.4415129322162
50.441512960964
50.4415130738754
50.441513443838
50.4415145657091
50.4415177765858
50.441526493559
50.4415491486777
50.4416062663371
50.4417483971395
50.4421004061317
50.4429486893841
3503.11123498692
31530.3176709382
31521.6814289733
3502.29367965794
50.4322371731124
50.4318752136125
50.4317258230693
50.4316663321033
50.4316428219507
50.4316336035696
50.4316300698406
50.4316287649501
50.4316283037912
50.4316281511778
50.4316281066663
50.4316280968897
50.4316280968536
50.4316280982013
50.4316280999358
50.4316281014701
50.4316281025239
50.4316281029011
50.4316281032505
50.431628103284
50.431628102393
50.431628102058
50.4316281026352
50.4316281030266
50.4316281032098
50.4316281033356
50.431628103163
50.4316281029197
50.4316281022953
50.4316281003731
50.4316281007206
50.4316281009464
50.4316281001222
50.4316281001823
50.4316281014379
50.4316281120433
50.4316281565447
50.4316283040387
50.4316287516337
50.4316300307266
50.4316335037779
50.4316425719986
50.4316657100142
50.4317244808592
50.4318739355592
50.4322447004051
3502.29742463681
31521.8131414046
31518.1060808145
3501.96089881401
50.4279094588759
50.4277636711678
50.4277047712016
50.4276817918953
50.4276728636808
50.4276693960097
50.427668069043
50.4276675772144
50.4276674023192
50.4276673441498
50.4276673273593
50.4276673239846
50.4276673242069
50.4276673249063
50.427667325729
50.4276673264488
50.427667326966
50.427667327191
50.4276673273349
50.427667327329
50.4276673271375
50.427667327179
50.4276673273957
50.4276673275453
50.4276673276035
50.4276673276477
50.4276673275613
50.4276673274125
50.4276673271212
50.4276673262868
50.4276673262878
50.4276673262158
50.4276673258834
50.4276673258655
50.4276673260509
50.4276673296602
50.4276673460743
50.4276674013853
50.4276675690834
50.4276680464441
50.4276693395389
50.427672722732
50.4276814363088
50.4277039633394
50.4277625962485
50.4279119618871
3501.96258219671
31518.1720287167
31516.6868161459
3501.8333187512
50.4262733365931
50.4262184563297
50.4261966969345
50.4261883564398
50.4261851646325
50.4261839356813
50.4261834660591
50.42618329133
50.426183228833
50.4261832079548
50.4261832019812
50.4261832008784
50.4261832010371
50.4261832013508
50.4261832016955
50.4261832019929
50.4261832022108
50.4261832023222
50.4261832023695
50.4261832023491
50.4261832023213
50.4261832023689
50.4261832024368
50.4261832024732
50.4261832024735
50.4261832024691
50.426183202413
50.4261832023241
50.4261832021848
50.4261832018524
50.4261832017803
50.4261832016962
50.4261832015493
50.4261832014839
50.4261832014583
50.4261832025993
50.4261832083415
50.4261832280312
50.4261832876043
50.4261834562389
50.4261839110768
50.4261851009062
50.4261881868359
50.4261962852981
50.4262177986399
50.4262739670531
3501.83400689519
31516.7168067884
31516.1571549296
3501.78731112291
50.4256912348233
50.4256717359098
50.4256641339726
50.4256612641863
50.4256601806563
50.4256597668063
50.425659608871
50.4256595498953
50.4256595286891
50.4256595215765
50.4256595195616
50.4256595192145
50.4256595192803
50.4256595194006
50.4256595195258
50.4256595196306
50.4256595197055
50.4256595197424
50.4256595197568
50.4256595197451
50.4256595197233
50.4256595197237
50.425659519728
50.4256595197188
50.425659519696
50.4256595196703
50.4256595196259
50.4256595195677
50.4256595194924
50.4256595193547
50.425659519291
50.4256595192266
50.425659519143
50.4256595190807
50.4256595190295
50.4256595193669
50.4256595212802
50.4256595279683
50.4256595481701
50.4256596049929
50.4256597573895
50.4256601552729
50.4256611922034
50.4256639476283
50.425671399918
50.4256913104857
3501.78757015025
31516.169727912
31515.9702646891
3501.77162068089
50.4254954039394
50.4254888140943
50.4254862840899
50.4254853414828
50.4254849897994
50.4254848564766
50.4254848056694
50.425484786635
50.4254847797572
50.4254847774398
50.4254847767847
50.4254847766733
50.4254847766918
50.4254847767269
50.4254847767607
50.4254847767854
50.4254847767987
50.4254847767979
50.4254847767885
50.4254847767688
50.4254847767438
50.4254847767242
50.4254847767035
50.4254847766773
50.4254847766459
50.4254847766124
50.4254847765727
50.4254847765281
50.4254847764776
50.4254847764085
50.425484776359
50.4254847763096
50.4254847762543
50.4254847762045
50.4254847761601
50.425484776243
50.4254847768439
50.4254847790137
50.4254847855798
50.4254848039429
50.4254848528869
50.4254849802544
50.4254853131551
50.4254862068081
50.4254886622325
50.4254953671295
3501.77171128509
31515.9751790112
31515.9077779018
3501.76655621887
50.425433137611
50.4254310060064
50.425430199157
50.4254299019552
50.4254297922205
50.4254297509079
50.4254297351888
50.4254297292821
50.4254297271366
50.4254297264075
50.4254297261969
50.4254297261554
50.4254297261526
50.4254297261531
50.4254297261514
50.4254297261451
50.4254297261338
50.4254297261167
50.4254297260953
50.4254297260696
50.4254297260411
50.4254297260128
50.4254297259829
50.4254297259506
50.425429725916
50.4254297258802
50.4254297258423
50.4254297258026
50.4254297257611
50.4254297257144
50.4254297256728
50.4254297256315
50.4254297255887
50.4254297255479
50.4254297255102
50.4254297255138
50.4254297256821
50.4254297263475
50.425429728392
50.4254297341001
50.425429749233
50.4254297884616
50.4254298911339
50.425430168991
50.4254309431373
50.4254331014286
3501.76658585248
31515.9095845994
31515.8881170362
3501.76502851623
50.4254147348581
50.4254140716115
50.4254138238624
50.4254137335073
50.4254137004472
50.4254136880804
50.4254136833824
50.4254136816111
50.425413680962
50.4254136807361
50.4254136806647
50.4254136806428
50.4254136806309
50.4254136806185
50.4254136806036
50.4254136805859
50.4254136805652
50.4254136805414
50.4254136805149
50.425413680486
50.4254136804552
50.4254136804234
50.4254136803901
50.4254136803555
50.4254136803196
50.425413680283
50.4254136802455
50.4254136802074
50.4254136801688
50.425413680129
50.4254136800907
50.4254136800529
50.4254136800152
50.4254136799787
50.4254136799442
50.4254136799234
50.4254136799538
50.4254136801369
50.4254136807388
50.4254136824418
50.4254136869539
50.4254136986174
50.4254137291625
50.4254138123586
50.4254140470423
50.4254147144749
3501.76503760003
31515.8887460884
31515.8825204966
3501.76462510702
50.4254100878233
50.4254098885109
50.4254098149806
50.4254097883995
50.4254097787507
50.4254097751625
50.425409773801
50.4254097732842
50.4254097730905
50.4254097730177
50.4254097729881
50.4254097729713
50.4254097729557
50.4254097729383
50.4254097729187
50.4254097728967
50.4254097728724
50.4254097728459
50.4254097728173
50.4254097727867
50.4254097727547
50.4254097727213
50.4254097726866
50.425409772651
50.4254097726145
50.4254097725773
50.4254097725398
50.425409772502
50.4254097724641
50.4254097724262
50.425409772389
50.4254097723524
50.4254097723164
50.4254097722815
50.4254097722481
50.4254097722197
50.4254097722074
50.425409772241
50.4254097723985
50.4254097728773
50.4254097741685
50.4254097775172
50.4254097863036
50.4254098103728
50.4254098790462
50.4254100781321
3501.76462769865
31515.8827289457
31515.881351411
3501.76456467238
50.4254095789286
50.4254095208918
50.4254094997323
50.4254094921457
50.4254094894116
50.4254094884003
50.4254094880158
50.4254094878669
50.4254094878068
50.4254094877788
50.4254094877612
50.4254094877453
50.4254094877281
50.4254094877088
50.4254094876873
50.4254094876635
50.4254094876377
50.4254094876098
50.4254094875802
50.4254094875488
50.4254094875158
50.4254094874816
50.4254094874463
50.42540948741
50.425409487373
50.4254094873354
50.4254094872976
50.4254094872596
50.4254094872218
50.4254094871841
50.4254094871471
50.4254094871107
50.4254094870752
50.4254094870406
50.4254094870074
50.4254094869765
50.4254094869511
50.4254094869398
50.4254094869646
50.425409487081
50.4254094874263
50.4254094883469
50.4254094907878
50.4254094975272
50.4254095169808
50.4254095744486
3501.76456533227
31515.8814172549
31515.8815237899
3501.76460504773
50.4254102688628
50.4254102524447
50.425410246527
50.4254102444235
50.4254102436708
50.4254102433935
50.4254102432866
50.4254102432419
50.4254102432195
50.4254102432039
50.4254102431893
50.4254102431733
50.4254102431553
50.4254102431349
50.4254102431125
50.4254102430878
50.4254102430611
50.4254102430325
50.4254102430021
50.42541024297
50.4254102429365
50.4254102429016
50.4254102428658
50.425410242829
50.4254102427915
50.4254102427536
50.4254102427153
50.4254102426771
50.4254102426389
50.4254102426011
50.4254102425639
50.4254102425274
50.4254102424917
50.4254102424571
50.4254102424237
50.4254102423918
50.4254102423624
50.4254102423378
50.4254102423241
50.4254102423365
50.425410242412
50.4254102426447
50.4254102432914
50.4254102451134
50.4254102504561
50.4254102665493
3501.76460516444
31515.8815434647
31515.8820887307
3501.76467407171
50.42541129438
50.4254112898583
50.4254112882477
50.4254112876816
50.4254112874808
50.4254112874064
50.4254112873756
50.4254112873593
50.4254112873469
50.4254112873344
50.4254112873201
50.4254112873037
50.425411287285
50.425411287264
50.4254112872409
50.4254112872155
50.4254112871881
50.4254112871589
50.4254112871279
50.4254112870952
50.4254112870612
50.4254112870258
50.4254112869894
50.4254112869521
50.4254112869142
50.4254112868758
50.4254112868372
50.4254112867985
50.42541128676
50.4254112867219
50.4254112866844
50.4254112866476
50.4254112866116
50.4254112865768
50.4254112865431
50.4254112865107
50.42541128648
50.4254112864515
50.4254112864269
50.4254112864102
50.4254112864111
50.4254112864545
50.4254112866086
50.4254112870765
50.4254112884959
50.4254112928745
3501.76467404344
31515.8820940618
31515.8827649604
3501.76475099085
50.4254124109333
50.4254124097188
50.4254124092922
50.4254124091452
50.4254124090935
50.4254124090732
50.4254124090623
50.4254124090531
50.4254124090429
50.4254124090306
50.4254124090161
50.4254124089991
50.4254124089798
50.4254124089582
50.4254124089344
50.4254124089084
50.4254124088804
50.4254124088506
50.425412408819
50.4254124087858
50.4254124087512
50.4254124087153
50.4254124086784
50.4254124086406
50.4254124086023
50.4254124085634
50.4254124085244
50.4254124084853
50.4254124084465
50.425412408408
50.4254124083701
50.4254124083329
50.4254124082967
50.4254124082615
50.4254124082275
50.4254124081948
50.4254124081635
50.4254124081339
50.4254124081062
50.4254124080816
50.4254124080625
50.4254124080556
50.4254124080783
50.4254124081842
50.4254124085437
50.4254124097001
3501.76475092534
31515.8827659898
31515.883471835
3501.7648300255
50.425413551483
50.4254135511639
50.4254135510539
50.4254135510176
50.4254135510045
50.4254135509977
50.4254135509913
50.4254135509834
50.4254135509731
50.4254135509605
50.4254135509453
50.4254135509278
50.4254135509078
50.4254135508856
50.4254135508611
50.4254135508346
50.425413550806
50.4254135507755
50.4254135507434
50.4254135507096
50.4254135506744
50.425413550638
50.4254135506007
50.4254135505624
50.4254135505235
50.4254135504843
50.4254135504448
50.4254135504053
50.425413550366
50.4254135503272
50.4254135502889
50.4254135502514
50.4254135502148
50.4254135501793
50.425413550145
50.425413550112
50.4254135500804
50.4254135500503
50.4254135500219
50.4254135499953
50.4254135499711
50.4254135499513
50.4254135499405
50.4254135499525
50.4254135500337
50.4254135503278
3501.76482995037
31515.883471614
31515.8841869255
3501.76490961262
50.4254146981938
50.4254146981106
50.4254146980827
50.4254146980741
50.42541469807
50.4254146980659
50.42541469806
50.4254146980517
50.4254146980409
50.4254146980276
50.4254146980118
50.4254146979936
50.425414697973
50.4254146979501
50.425414697925
50.4254146978978
50.4254146978686
50.4254146978375
50.4254146978047
50.4254146977704
50.4254146977347
50.4254146976978
50.4254146976598
50.4254146976211
50.4254146975818
50.425414697542
50.4254146975021
50.4254146974622
50.4254146974225
50.4254146973833
50.4254146973446
50.4254146973068
50.4254146972699
50.425414697234
50.4254146971995
50.4254146971662
50.4254146971344
50.4254146971041
50.4254146970754
50.4254146970484
50.4254146970232
50.4254146970004
50.4254146969815
50.4254146969705
50.4254146969808
50.4254146970503
3501.76490953432
31515.884186344
31515.8849041653
3501.7649893407
50.4254158464494
50.4254158464264
50.4254158464186
50.425415846416
50.4254158464133
50.425415846409
50.4254158464024
50.4254158463934
50.4254158463819
50.4254158463679
50.4254158463513
50.4254158463324
50.4254158463111
50.4254158462876
50.4254158462618
50.425415846234
50.4254158462041
50.4254158461725
50.4254158461391
50.4254158461042
50.4254158460679
50.4254158460304
50.425415845992
50.4254158459528
50.425415845913
50.4254158458728
50.4254158458324
50.425415845792
50.425415845752
50.4254158457123
50.4254158456733
50.4254158456351
50.4254158455978
50.4254158455618
50.4254158455269
50.4254158454934
50.4254158454614
50.425415845431
50.4254158454022
50.4254158453751
50.4254158453499
50.4254158453268
50.4254158453063
50.4254158452902
50.4254158452834
50.4254158452963
3501.76498926075
31515.8849034794
31515.8856219553
3501.76506910402
50.4254169950846
50.425416995076
50.4254169950724
50.4254169950704
50.4254169950671
50.425416995062
50.4254169950545
50.4254169950447
50.4254169950324
50.4254169950176
50.4254169950003
50.4254169949807
50.4254169949587
50.4254169949344
50.425416994908
50.4254169948795
50.425416994849
50.4254169948167
50.4254169947827
50.4254169947472
50.4254169947104
50.4254169946724
50.4254169946334
50.4254169945936
50.4254169945534
50.4254169945127
50.4254169944718
50.4254169944311
50.4254169943906
50.4254169943506
50.4254169943112
50.4254169942727
50.4254169942351
50.4254169941987
50.4254169941636
50.4254169941299
50.4254169940977
50.4254169940672
50.4254169940383
50.4254169940114
50.4254169939862
50.4254169939634
50.4254169939431
50.4254169939263
50.4254169939158
50.4254169939151
3501.76506902263
31515.8856212309
31515.8863398835
3501.76514887602
50.4254181438119
50.4254181438062
50.4254181438029
50.4254181438001
50.4254181437959
50.4254181437897
50.4254181437813
50.4254181437705
50.4254181437574
50.4254181437418
50.4254181437238
50.4254181437034
50.4254181436807
50.4254181436558
50.4254181436287
50.4254181435995
50.4254181435683
50.4254181435354
50.4254181435008
50.4254181434647
50.4254181434273
50.4254181433888
50.4254181433492
50.425418143309
50.4254181432682
50.4254181432271
50.4254181431858
50.4254181431446
50.4254181431037
50.4254181430633
50.4254181430236
50.4254181429847
50.4254181429468
50.4254181429101
50.4254181428747
50.4254181428408
50.4254181428085
50.4254181427779
50.425418142749
50.4254181427221
50.4254181426973
50.4254181426747
50.4254181426548
50.4254181426383
50.4254181426275
50.4254181426239
3501.76514879326
31515.8863391402
31515.8870578459
3501.76522865015
50.4254192925617
50.4254192925561
50.425419292552
50.4254192925482
50.4254192925429
50.4254192925358
50.4254192925264
50.4254192925147
50.4254192925007
50.4254192924844
50.4254192924656
50.4254192924444
50.425419292421
50.4254192923954
50.4254192923676
50.4254192923377
50.4254192923059
50.4254192922724
50.4254192922372
50.4254192922005
50.4254192921625
50.4254192921234
50.4254192920833
50.4254192920426
50.4254192920013
50.4254192919597
50.425419291918
50.4254192918764
50.4254192918351
50.4254192917943
50.4254192917542
50.425419291715
50.4254192916768
50.4254192916398
50.4254192916042
50.4254192915701
50.4254192915376
50.4254192915069
50.4254192914781
50.4254192914512
50.4254192914266
50.4254192914044
50.4254192913849
50.425419291369
50.4254192913584
50.4254192913545
3501.76522856603
31515.8870570897
31515.8877758168
3501.76530842481
50.4254204413171
50.4254204413108
50.4254204413059
50.4254204413011
50.4254204412948
50.4254204412867
50.4254204412764
50.4254204412638
50.425420441249
50.4254204412317
50.4254204412122
50.4254204411903
50.4254204411662
50.4254204411398
50.4254204411113
50.4254204410807
50.4254204410483
50.4254204410141
50.4254204409783
50.425420440941
50.4254204409024
50.4254204408628
50.4254204408222
50.425420440781
50.4254204407392
50.4254204406971
50.425420440655
50.425420440613
50.4254204405713
50.4254204405301
50.4254204404896
50.4254204404501
50.4254204404116
50.4254204403743
50.4254204403385
50.4254204403041
50.4254204402716
50.4254204402408
50.425420440212
50.4254204401853
50.4254204401608
50.4254204401389
50.4254204401198
50.4254204401044
50.4254204400942
50.4254204400905
3501.76530833932
31515.8877750456
31515.8884937899
3501.7653881996
50.4254215900738
50.4254215900669
50.4254215900611
50.4254215900553
50.425421590048
50.4254215900389
50.4254215900277
50.4254215900143
50.4254215899986
50.4254215899805
50.4254215899602
50.4254215899375
50.4254215899127
50.4254215898856
50.4254215898564
50.4254215898251
50.4254215897921
50.4254215897572
50.4254215897208
50.4254215896829
50.4254215896438
50.4254215896035
50.4254215895625
50.4254215895207
50.4254215894785
50.4254215894359
50.4254215893934
50.4254215893509
50.4254215893088
50.4254215892673
50.4254215892265
50.4254215891866
50.4254215891478
50.4254215891103
50.4254215890743
50.4254215890398
50.425421589007
50.4254215889762
50.4254215889474
50.4254215889208
50.4254215888965
50.4254215888748
50.4254215888561
50.4254215888411
50.4254215888313
50.425421588828
3501.76538811271
31515.8884930073
31515.8892117633
3501.76546797441
50.4254227388307
50.4254227388231
50.4254227388165
50.4254227388097
50.4254227388015
50.4254227387914
50.4254227387793
50.425422738765
50.4254227387484
50.4254227387296
50.4254227387085
50.4254227386851
50.4254227386594
50.4254227386316
50.4254227386017
50.4254227385698
50.425422738536
50.4254227385006
50.4254227384635
50.4254227384251
50.4254227383854
50.4254227383446
50.425422738303
50.4254227382608
50.425422738218
50.4254227381751
50.4254227381321
50.4254227380892
50.4254227380467
50.4254227380048
50.4254227379637
50.4254227379235
50.4254227378844
50.4254227378467
50.4254227378104
50.4254227377757
50.4254227377429
50.425422737712
50.4254227376832
50.4254227376567
50.4254227376326
50.4254227376112
50.4254227375928
50.4254227375782
50.4254227375687
50.4254227375657
3501.76546788621
31515.8892109684
31515.8899297364
3501.76554774919
50.4254238875871
50.4254238875787
50.4254238875713
50.4254238875636
50.4254238875545
50.4254238875435
50.4254238875305
50.4254238875153
50.4254238874979
50.4254238874783
50.4254238874563
50.4254238874322
50.4254238874058
50.4254238873773
50.4254238873467
50.4254238873141
50.4254238872797
50.4254238872436
50.4254238872059
50.4254238871669
50.4254238871267
50.4254238870854
50.4254238870432
50.4254238870005
50.4254238869573
50.4254238869139
50.4254238868705
50.4254238868272
50.4254238867844
50.4254238867421
50.4254238867006
50.4254238866601
50.4254238866208
50.4254238865828
50.4254238865463
50.4254238865115
50.4254238864786
50.4254238864476
50.4254238864188
50.4254238863924
50.4254238863684
50.4254238863473
50.4254238863292
50.425423886315
50.4254238863058
50.4254238863032
3501.76554765965
31515.8899289305
31515.8906477091
3501.7656275239
50.4254250363426
50.4254250363334
50.4254250363252
50.4254250363166
50.4254250363065
50.4254250362947
50.4254250362807
50.4254250362647
50.4254250362465
50.4254250362261
50.4254250362034
50.4254250361785
50.4254250361513
50.4254250361221
50.4254250360908
50.4254250360576
50.4254250360226
50.4254250359858
50.4254250359476
50.425425035908
50.4254250358671
50.4254250358253
50.4254250357827
50.4254250357395
50.4254250356959
50.425425035652
50.4254250356082
50.4254250355645
50.4254250355213
50.4254250354787
50.4254250354369
50.4254250353961
50.4254250353565
50.4254250353183
50.4254250352817
50.4254250352467
50.4254250352136
50.4254250351826
50.4254250351539
50.4254250351275
50.4254250351037
50.4254250350828
50.425425035065
50.4254250350512
50.4254250350423
50.4254250350401
3501.76562743309
31515.8906468912
31515.8913656809
3501.76570729852
50.4254261850966
50.4254261850867
50.4254261850777
50.4254261850681
50.4254261850572
50.4254261850445
50.4254261850296
50.4254261850128
50.4254261849938
50.4254261849726
50.4254261849491
50.4254261849234
50.4254261848956
50.4254261848656
50.4254261848337
50.4254261847998
50.4254261847642
50.4254261847268
50.425426184688
50.4254261846478
50.4254261846065
50.4254261845641
50.425426184521
50.4254261844773
50.4254261844332
50.425426184389
50.4254261843447
50.4254261843007
50.4254261842571
50.4254261842142
50.4254261841721
50.425426184131
50.4254261840912
50.4254261840528
50.4254261840159
50.4254261839808
50.4254261839477
50.4254261839167
50.4254261838879
50.4254261838616
50.425426183838
50.4254261838173
50.4254261837998
50.4254261837863
50.4254261837778
50.425426183776
3501.76570720639
31515.8913648513
31515.8920836517
3501.76578707303
50.4254273338489
50.425427333838
50.4254273338283
50.4254273338178
50.4254273338061
50.4254273337924
50.4254273337768
50.4254273337591
50.4254273337393
50.4254273337173
50.425427333693
50.4254273336666
50.4254273336381
50.4254273336075
50.4254273335748
50.4254273335403
50.425427333504
50.4254273334661
50.4254273334267
50.425427333386
50.4254273333441
50.4254273333013
50.4254273332577
50.4254273332135
50.425427333169
50.4254273331243
50.4254273330797
50.4254273330354
50.4254273329914
50.4254273329482
50.4254273329058
50.4254273328644
50.4254273328244
50.4254273327857
50.4254273327487
50.4254273327136
50.4254273326803
50.4254273326493
50.4254273326205
50.4254273325943
50.4254273325709
50.4254273325504
50.4254273325332
50.4254273325201
50.4254273325119
50.4254273325105
3501.7657869796
31515.8920828086
31515.8928016212
3501.76586684739
50.425428482599
50.4254284825872
50.4254284825767
50.4254284825653
50.4254284825526
50.4254284825381
50.4254284825216
50.4254284825032
50.4254284824826
50.4254284824598
50.4254284824348
50.4254284824077
50.4254284823784
50.4254284823472
50.4254284823139
50.4254284822787
50.4254284822419
50.4254284822033
50.4254284821634
50.4254284821221
50.4254284820798
50.4254284820364
50.4254284819924
50.4254284819478
50.4254284819029
50.4254284818578
50.4254284818128
50.4254284817681
50.4254284817238
50.4254284816802
50.4254284816376
50.425428481596
50.4254284815557
50.4254284815169
50.4254284814798
50.4254284814445
50.4254284814112
50.4254284813801
50.4254284813514
50.4254284813253
50.425428481302
50.4254284812817
50.4254284812648
50.4254284812521
50.4254284812443
50.4254284812435
3501.76586675279
31515.8928007682
31515.8935195893
3501.76594662157
50.4254296313465
50.4254296313337
50.4254296313223
50.4254296313099
50.4254296312964
50.4254296312811
50.4254296312638
50.4254296312445
50.4254296312231
50.4254296311996
50.4254296311739
50.4254296311461
50.4254296311162
50.4254296310842
50.4254296310503
50.4254296310146
50.4254296309771
50.425429630938
50.4254296308975
50.4254296308558
50.4254296308129
50.4254296307692
50.4254296307247
50.4254296306797
50.4254296306343
50.4254296305889
50.4254296305435
50.4254296304984
50.4254296304539
50.4254296304101
50.4254296303671
50.4254296303253
50.4254296302848
50.4254296302458
50.4254296302085
50.4254296301731
50.4254296301398
50.4254296301087
50.4254296300801
50.4254296300541
50.425429630031
50.425429630011
50.4254296299943
50.4254296299821
50.4254296299746
50.4254296299745
3501.76594652585
31515.8935187267
31515.8942375556
3501.76602639556
50.425430780091
50.4254307800771
50.4254307800648
50.4254307800514
50.4254307800371
50.4254307800209
50.4254307800028
50.4254307799828
50.4254307799606
50.4254307799363
50.42543077991
50.4254307798815
50.4254307798509
50.4254307798183
50.4254307797838
50.4254307797475
50.4254307797095
50.4254307796698
50.4254307796288
50.4254307795866
50.4254307795433
50.4254307794991
50.4254307794541
50.4254307794087
50.425430779363
50.4254307793172
50.4254307792715
50.4254307792261
50.4254307791812
50.4254307791371
50.4254307790939
50.4254307790519
50.4254307790113