/*--------------------------------*- C++ -*----------------------------------*\
  =========                 |
  \\      /  F ield         | OpenFOAM: The Open Source CFD Toolbox
   \\    /   O peration     | Website:  https://openfoam.org
    \\  /    A nd           | Version:  10
     \\/     M anipulation  |
\*---------------------------------------------------------------------------*/
FoamFile
{
    format      ascii;
    class       volScalarField;
    location    "4";
    object      p;
}
// * * * * * * * * * * * * * * * * * * * * * * * * * * * * * * * * * * * * * //

dimensions      [1 -1 -2 0 0 0 0];

internalField   nonuniform List<scalar> 
2500
(
100081.166575984
100081.166577479
100081.166578444
100081.166579204
100081.1665796
100081.166579815
100081.166579915
100081.166579945
100081.166579939
100081.166579911
100081.166579869
100081.16657982
100081.166579766
100081.166579709
100081.166579651
100081.166579592
100081.166579534
100081.166579476
100081.166579419
100081.166579365
100081.166579313
100081.166579262
100081.166579215
100081.16657917
100081.166579128
100081.166579089
100081.166579053
100081.166579019
100081.166578989
100081.166578961
100081.166578936
100081.166578913
100081.166578893
100081.166578875
100081.166578859
100081.166578845
100081.166578832
100081.16657882
100081.166578808
100081.166578794
100081.166578777
100081.16657875
100081.166578706
100081.166578631
100081.166578493
100081.166578248
100081.166577828
100081.16657705
100081.16657606
100081.166574553
100081.164330163
100081.164331359
100081.16433209
100081.164332735
100081.164333076
100081.164333263
100081.164333348
100081.164333371
100081.16433336
100081.16433333
100081.164333288
100081.164333239
100081.164333185
100081.164333128
100081.16433307
100081.164333012
100081.164332953
100081.164332896
100081.16433284
100081.164332785
100081.164332733
100081.164332683
100081.164332636
100081.164332591
100081.164332549
100081.16433251
100081.164332474
100081.164332441
100081.16433241
100081.164332382
100081.164332357
100081.164332334
100081.164332314
100081.164332296
100081.16433228
100081.164332266
100081.164332253
100081.164332241
100081.164332229
100081.164332215
100081.164332198
100081.164332174
100081.164332134
100081.164332067
100081.164331944
100081.164331726
100081.164331361
100081.164330699
100081.164329943
100081.164328739
100081.162071988
100081.162072674
100081.162072944
100081.162073311
100081.162073499
100081.162073606
100081.16207365
100081.162073653
100081.162073634
100081.1620736
100081.162073556
100081.162073506
100081.162073453
100081.162073396
100081.162073338
100081.16207328
100081.162073222
100081.162073165
100081.162073109
100081.162073055
100081.162073003
100081.162072953
100081.162072906
100081.162072861
100081.16207282
100081.162072781
100081.162072745
100081.162072712
100081.162072681
100081.162072653
100081.162072628
100081.162072606
100081.162072586
100081.162072568
100081.162072552
100081.162072538
100081.162072525
100081.162072513
100081.162072501
100081.162072488
100081.162072473
100081.162072452
100081.162072422
100081.162072375
100081.162072292
100081.162072155
100081.162071942
100081.162071558
100081.16207127
100081.162070561
100081.159805147
100081.159805304
100081.159805213
100081.159805295
100081.159805328
100081.159805348
100081.159805351
100081.159805334
100081.159805306
100081.159805268
100081.159805223
100081.159805172
100081.159805119
100081.159805062
100081.159805005
100081.159804947
100081.159804889
100081.159804832
100081.159804777
100081.159804723
100081.159804671
100081.159804622
100081.159804575
100081.159804531
100081.159804489
100081.159804451
100081.159804415
100081.159804382
100081.159804352
100081.159804324
100081.159804299
100081.159804277
100081.159804257
100081.159804239
100081.159804223
100081.159804209
100081.159804197
100081.159804185
100081.159804174
100081.159804162
100081.159804149
100081.159804133
100081.159804111
100081.159804085
100081.159804044
100081.159803992
100081.159803935
100081.159803836
100081.159803919
100081.159803739
100081.157532302
100081.157532127
100081.157531875
100081.15753178
100081.157531715
100081.157531675
100081.157531647
100081.157531614
100081.157531577
100081.157531535
100081.157531488
100081.157531436
100081.157531382
100081.157531326
100081.157531269
100081.157531211
100081.157531154
100081.157531097
100081.157531042
100081.157530989
100081.157530938
100081.157530889
100081.157530842
100081.157530799
100081.157530758
100081.157530719
100081.157530684
100081.157530651
100081.157530622
100081.157530594
100081.15753057
100081.157530548
100081.157530528
100081.157530511
100081.157530495
100081.157530481
100081.157530469
100081.157530458
100081.157530447
100081.157530437
100081.157530426
100081.157530415
100081.157530402
100081.157530392
100081.157530383
100081.157530391
100081.157530434
100081.157530514
100081.157530764
100081.157530923
100081.155255799
100081.155255496
100081.155255208
100081.155255026
100081.155254909
100081.155254833
100081.155254784
100081.155254738
100081.155254695
100081.155254649
100081.1552546
100081.155254547
100081.155254493
100081.155254437
100081.15525438
100081.155254323
100081.155254266
100081.15525421
100081.155254155
100081.155254103
100081.155254052
100081.155254004
100081.155253958
100081.155253914
100081.155253874
100081.155253836
100081.155253801
100081.155253769
100081.15525374
100081.155253713
100081.155253689
100081.155253667
100081.155253648
100081.155253631
100081.155253616
100081.155253602
100081.155253591
100081.15525358
100081.155253571
100081.155253562
100081.155253554
100081.155253547
100081.155253541
100081.155253544
100081.155253556
100081.155253601
100081.155253696
100081.155253866
100081.155254154
100081.155254451
100081.152977366
100081.152977063
100081.152976801
100081.152976591
100081.152976455
100081.15297636
100081.152976297
100081.152976243
100081.152976194
100081.152976144
100081.152976093
100081.15297604
100081.152975985
100081.152975929
100081.152975872
100081.152975815
100081.152975759
100081.152975704
100081.15297565
100081.152975598
100081.152975548
100081.1529755
100081.152975455
100081.152975412
100081.152975373
100081.152975335
100081.152975301
100081.15297527
100081.152975241
100081.152975215
100081.152975191
100081.15297517
100081.152975151
100081.152975135
100081.15297512
100081.152975107
100081.152975096
100081.152975087
100081.152975078
100081.152975071
100081.152975066
100081.152975062
100081.152975063
100081.152975075
100081.152975101
100081.152975166
100081.15297528
100081.152975479
100081.152975741
100081.152976045
100081.150698037
100081.150697786
100081.150697569
100081.150697365
100081.150697228
100081.150697125
100081.150697054
100081.150696993
100081.15069694
100081.150696888
100081.150696835
100081.150696781
100081.150696726
100081.15069667
100081.150696613
100081.150696557
100081.150696501
100081.150696447
100081.150696394
100081.150696342
100081.150696293
100081.150696246
100081.150696202
100081.15069616
100081.150696121
100081.150696084
100081.150696051
100081.15069602
100081.150695992
100081.150695966
100081.150695943
100081.150695923
100081.150695905
100081.150695889
100081.150695875
100081.150695863
100081.150695853
100081.150695844
100081.150695837
100081.150695832
100081.150695829
100081.150695829
100081.150695835
100081.150695854
100081.150695888
100081.150695962
100081.150696077
100081.15069627
100081.150696485
100081.150696738
100081.148418338
100081.148418147
100081.148417975
100081.148417792
100081.148417663
100081.148417558
100081.148417483
100081.148417419
100081.148417362
100081.148417307
100081.148417253
100081.148417198
100081.148417143
100081.148417087
100081.148417031
100081.148416976
100081.148416921
100081.148416867
100081.148416815
100081.148416764
100081.148416716
100081.14841667
100081.148416626
100081.148416585
100081.148416547
100081.148416512
100081.148416479
100081.148416449
100081.148416421
100081.148416397
100081.148416374
100081.148416355
100081.148416337
100081.148416322
100081.148416309
100081.148416298
100081.148416288
100081.148416281
100081.148416275
100081.148416272
100081.148416271
100081.148416275
100081.148416285
100081.148416308
100081.148416347
100081.148416422
100081.148416529
100081.148416701
100081.148416868
100081.14841706
100081.146138503
100081.146138364
100081.14613823
100081.146138072
100081.146137954
100081.146137853
100081.146137776
100081.146137709
100081.14613765
100081.146137594
100081.146137539
100081.146137484
100081.146137428
100081.146137373
100081.146137317
100081.146137262
100081.146137208
100081.146137155
100081.146137104
100081.146137055
100081.146137007
100081.146136962
100081.146136919
100081.146136879
100081.146136842
100081.146136808
100081.146136776
100081.146136747
100081.14613672
100081.146136696
100081.146136675
100081.146136656
100081.146136639
100081.146136625
100081.146136613
100081.146136602
100081.146136594
100081.146136588
100081.146136584
100081.146136582
100081.146136583
100081.146136589
100081.146136603
100081.146136629
100081.146136669
100081.146136741
100081.146136837
100081.146136983
100081.14613711
100081.146137249
100081.143858626
100081.143858526
100081.143858421
100081.143858287
100081.143858181
100081.143858085
100081.143858009
100081.143857942
100081.143857881
100081.143857824
100081.143857768
100081.143857713
100081.143857658
100081.143857603
100081.143857548
100081.143857494
100081.143857441
100081.143857389
100081.143857338
100081.14385729
100081.143857244
100081.1438572
100081.143857158
100081.143857119
100081.143857083
100081.143857049
100081.143857018
100081.14385699
100081.143856965
100081.143856942
100081.143856921
100081.143856903
100081.143856888
100081.143856874
100081.143856863
100081.143856853
100081.143856846
100081.143856841
100081.143856838
100081.143856838
100081.143856841
100081.14385685
100081.143856865
100081.143856892
100081.143856933
100081.143857
100081.143857084
100081.143857204
100081.1438573
100081.143857398
100081.141578738
100081.141578665
100081.141578583
100081.141578471
100081.141578376
100081.141578286
100081.141578212
100081.141578145
100081.141578084
100081.141578027
100081.141577971
100081.141577915
100081.141577861
100081.141577806
100081.141577752
100081.141577699
100081.141577647
100081.141577596
100081.141577547
100081.141577499
100081.141577454
100081.141577411
100081.141577371
100081.141577333
100081.141577298
100081.141577266
100081.141577236
100081.141577209
100081.141577184
100081.141577162
100081.141577143
100081.141577126
100081.141577111
100081.141577099
100081.141577088
100081.14157708
100081.141577074
100081.14157707
100081.141577068
100081.141577069
100081.141577074
100081.141577084
100081.141577101
100081.141577129
100081.141577168
100081.141577229
100081.141577301
100081.1415774
100081.141577471
100081.141577539
100081.139298846
100081.139298793
100081.139298728
100081.139298634
100081.13929855
100081.139298466
100081.139298395
100081.13929833
100081.139298269
100081.139298212
100081.139298156
100081.139298101
100081.139298047
100081.139297993
100081.13929794
100081.139297887
100081.139297836
100081.139297787
100081.139297739
100081.139297693
100081.139297649
100081.139297607
100081.139297568
100081.139297531
100081.139297497
100081.139297466
100081.139297438
100081.139297412
100081.139297388
100081.139297367
100081.139297349
100081.139297333
100081.139297319
100081.139297308
100081.139297299
100081.139297291
100081.139297286
100081.139297283
100081.139297283
100081.139297286
100081.139297292
100081.139297303
100081.139297321
100081.139297348
100081.139297385
100081.139297439
100081.139297501
100081.139297581
100081.139297634
100081.139297681
100081.137018952
100081.137018912
100081.137018861
100081.137018781
100081.137018707
100081.13701863
100081.137018563
100081.137018499
100081.137018439
100081.137018382
100081.137018327
100081.137018273
100081.137018219
100081.137018166
100081.137018114
100081.137018063
100081.137018013
100081.137017965
100081.137017918
100081.137017873
100081.137017831
100081.13701779
100081.137017753
100081.137017717
100081.137017685
100081.137017655
100081.137017627
100081.137017603
100081.137017581
100081.137017561
100081.137017544
100081.137017529
100081.137017516
100081.137017506
100081.137017498
100081.137017491
100081.137017487
100081.137017486
100081.137017486
100081.13701749
100081.137017497
100081.137017509
100081.137017527
100081.137017553
100081.137017588
100081.137017636
100081.137017688
100081.137017753
100081.137017792
100081.137017825
100081.134739056
100081.134739025
100081.134738984
100081.134738916
100081.13473885
100081.13473878
100081.134738716
100081.134738654
100081.134738596
100081.13473854
100081.134738486
100081.134738432
100081.13473838
100081.134738328
100081.134738277
100081.134738227
100081.134738179
100081.134738131
100081.134738086
100081.134738043
100081.134738002
100081.134737963
100081.134737926
100081.134737892
100081.134737861
100081.134737832
100081.134737806
100081.134737783
100081.134737762
100081.134737744
100081.134737728
100081.134737714
100081.134737703
100081.134737693
100081.134737686
100081.134737681
100081.134737678
100081.134737677
100081.134737679
100081.134737684
100081.134737692
100081.134737704
100081.134737722
100081.134737747
100081.134737779
100081.134737821
100081.134737865
100081.134737917
100081.134737946
100081.134737968
100081.132459155
100081.132459131
100081.132459097
100081.13245904
100081.132458981
100081.132458917
100081.132458856
100081.132458797
100081.132458741
100081.132458686
100081.132458633
100081.132458581
100081.132458529
100081.132458479
100081.132458429
100081.13245838
100081.132458333
100081.132458288
100081.132458244
100081.132458202
100081.132458162
100081.132458125
100081.13245809
100081.132458057
100081.132458027
100081.132458
100081.132457976
100081.132457953
100081.132457934
100081.132457917
100081.132457902
100081.132457889
100081.132457879
100081.132457871
100081.132457865
100081.132457861
100081.132457859
100081.13245786
100081.132457862
100081.132457868
100081.132457877
100081.132457889
100081.132457907
100081.13245793
100081.132457959
100081.132457996
100081.132458033
100081.132458075
100081.132458096
100081.132458111
100081.130179249
100081.13017923
100081.130179202
100081.130179153
100081.1301791
100081.130179042
100081.130178985
100081.130178929
100081.130178875
100081.130178822
100081.13017877
100081.130178719
100081.130178668
100081.130178619
100081.130178571
100081.130178524
100081.130178478
100081.130178434
100081.130178391
100081.130178351
100081.130178313
100081.130178277
100081.130178244
100081.130178213
100081.130178184
100081.130178158
100081.130178135
100081.130178115
100081.130178096
100081.13017808
100081.130178067
100081.130178056
100081.130178047
100081.13017804
100081.130178035
100081.130178032
100081.130178031
100081.130178033
100081.130178036
100081.130178043
100081.130178052
100081.130178064
100081.130178081
100081.130178103
100081.130178129
100081.130178162
100081.130178193
100081.130178226
100081.130178242
100081.130178252
100081.127899339
100081.127899323
100081.1278993
100081.127899257
100081.12789921
100081.127899156
100081.127899103
100081.12789905
100081.127898998
100081.127898947
100081.127898896
100081.127898847
100081.127898798
100081.12789875
100081.127898703
100081.127898658
100081.127898613
100081.127898571
100081.12789853
100081.127898491
100081.127898455
100081.12789842
100081.127898389
100081.127898359
100081.127898332
100081.127898308
100081.127898286
100081.127898267
100081.12789825
100081.127898236
100081.127898224
100081.127898214
100081.127898206
100081.1278982
100081.127898197
100081.127898195
100081.127898195
100081.127898197
100081.127898202
100081.127898209
100081.127898218
100081.127898231
100081.127898247
100081.127898267
100081.127898291
100081.127898319
100081.127898346
100081.127898373
100081.127898384
100081.12789839
100081.125619423
100081.12561941
100081.12561939
100081.125619353
100081.12561931
100081.125619262
100081.125619212
100081.125619162
100081.125619112
100081.125619063
100081.125619014
100081.125618966
100081.125618919
100081.125618872
100081.125618827
100081.125618783
100081.125618741
100081.1256187
100081.12561866
100081.125618623
100081.125618588
100081.125618556
100081.125618526
100081.125618498
100081.125618473
100081.12561845
100081.12561843
100081.125618412
100081.125618396
100081.125618383
100081.125618373
100081.125618364
100081.125618357
100081.125618353
100081.12561835
100081.12561835
100081.125618351
100081.125618354
100081.12561836
100081.125618367
100081.125618377
100081.12561839
100081.125618405
100081.125618424
100081.125618445
100081.125618469
100081.125618492
100081.125618513
100081.125618521
100081.125618525
100081.123339502
100081.123339492
100081.123339474
100081.123339442
100081.123339403
100081.123339359
100081.123339312
100081.123339265
100081.123339218
100081.12333917
100081.123339124
100081.123339077
100081.123339032
100081.123338987
100081.123338943
100081.123338901
100081.12333886
100081.123338821
100081.123338783
100081.123338748
100081.123338715
100081.123338684
100081.123338655
100081.123338629
100081.123338605
100081.123338584
100081.123338566
100081.123338549
100081.123338536
100081.123338524
100081.123338515
100081.123338507
100081.123338502
100081.123338499
100081.123338497
100081.123338498
100081.1233385
100081.123338504
100081.12333851
100081.123338518
100081.123338528
100081.123338541
100081.123338556
100081.123338573
100081.123338593
100081.123338614
100081.123338633
100081.12333865
100081.123338655
100081.123338657
100081.121059577
100081.121059568
100081.121059553
100081.121059525
100081.12105949
100081.121059449
100081.121059406
100081.121059361
100081.121059316
100081.121059271
100081.121059226
100081.121059181
100081.121059138
100081.121059095
100081.121059053
100081.121059012
100081.121058973
100081.121058935
100081.1210589
100081.121058866
100081.121058835
100081.121058805
100081.121058779
100081.121058754
100081.121058732
100081.121058713
100081.121058695
100081.121058681
100081.121058668
100081.121058658
100081.12105865
100081.121058644
100081.12105864
100081.121058638
100081.121058638
100081.12105864
100081.121058643
100081.121058648
100081.121058655
100081.121058663
100081.121058674
100081.121058686
100081.1210587
100081.121058716
100081.121058734
100081.121058752
100081.121058768
100081.121058782
100081.121058786
100081.121058786
100081.118779648
100081.11877964
100081.118779627
100081.118779602
100081.11877957
100081.118779533
100081.118779492
100081.118779451
100081.118779408
100081.118779365
100081.118779322
100081.118779279
100081.118779238
100081.118779196
100081.118779156
100081.118779117
100081.11877908
100081.118779044
100081.11877901
100081.118778979
100081.118778949
100081.118778921
100081.118778896
100081.118778874
100081.118778853
100081.118778835
100081.11877882
100081.118778807
100081.118778796
100081.118778787
100081.118778781
100081.118778776
100081.118778773
100081.118778773
100081.118778774
100081.118778776
100081.11877878
100081.118778786
100081.118778794
100081.118778803
100081.118778813
100081.118778825
100081.118778839
100081.118778854
100081.11877887
100081.118778886
100081.1187789
100081.118778911
100081.118778913
100081.118778912
100081.116499716
100081.116499709
100081.116499696
100081.116499674
100081.116499646
100081.116499611
100081.116499574
100081.116499535
100081.116499494
100081.116499454
100081.116499413
100081.116499372
100081.116499332
100081.116499293
100081.116499255
100081.116499218
100081.116499182
100081.116499148
100081.116499116
100081.116499086
100081.116499058
100081.116499033
100081.116499009
100081.116498988
100081.11649897
100081.116498953
100081.11649894
100081.116498928
100081.116498919
100081.116498911
100081.116498906
100081.116498903
100081.116498902
100081.116498902
100081.116498904
100081.116498908
100081.116498913
100081.11649892
100081.116498928
100081.116498937
100081.116498948
100081.11649896
100081.116498973
100081.116498987
100081.116499002
100081.116499016
100081.116499027
100081.116499036
100081.116499038
100081.116499036
100081.114219781
100081.114219774
100081.114219763
100081.114219744
100081.114219717
100081.114219686
100081.114219651
100081.114219615
100081.114219577
100081.114219538
100081.114219499
100081.114219461
100081.114219423
100081.114219386
100081.114219349
100081.114219314
100081.11421928
100081.114219248
100081.114219218
100081.11421919
100081.114219164
100081.11421914
100081.114219118
100081.114219099
100081.114219082
100081.114219068
100081.114219055
100081.114219045
100081.114219038
100081.114219032
100081.114219028
100081.114219027
100081.114219027
100081.114219028
100081.114219032
100081.114219036
100081.114219042
100081.11421905
100081.114219058
100081.114219068
100081.114219079
100081.114219091
100081.114219104
100081.114219117
100081.11421913
100081.114219142
100081.114219152
100081.114219159
100081.11421916
100081.114219158
100081.111939843
100081.111939837
100081.111939827
100081.11193981
100081.111939786
100081.111939758
100081.111939726
100081.111939691
100081.111939656
100081.111939619
100081.111939583
100081.111939546
100081.11193951
100081.111939475
100081.11193944
100081.111939407
100081.111939375
100081.111939345
100081.111939317
100081.111939291
100081.111939266
100081.111939244
100081.111939224
100081.111939207
100081.111939192
100081.111939179
100081.111939168
100081.11193916
100081.111939154
100081.11193915
100081.111939147
100081.111939147
100081.111939148
100081.111939151
100081.111939156
100081.111939161
100081.111939168
100081.111939177
100081.111939186
100081.111939196
100081.111939207
100081.111939219
100081.111939231
100081.111939243
100081.111939255
100081.111939266
100081.111939275
100081.111939281
100081.111939281
100081.111939278
100081.109659904
100081.109659899
100081.10965989
100081.109659875
100081.109659853
100081.109659827
100081.109659797
100081.109659766
100081.109659732
100081.109659698
100081.109659664
100081.109659629
100081.109659595
100081.109659562
100081.109659529
100081.109659498
100081.109659468
100081.10965944
100081.109659414
100081.109659389
100081.109659367
100081.109659346
100081.109659328
100081.109659313
100081.109659299
100081.109659288
100081.109659279
100081.109659272
100081.109659268
100081.109659265
100081.109659264
100081.109659265
100081.109659268
100081.109659272
100081.109659277
100081.109659284
100081.109659292
100081.109659301
100081.109659311
100081.109659321
100081.109659333
100081.109659344
100081.109659356
100081.109659368
100081.109659379
100081.109659388
100081.109659396
100081.1096594
100081.1096594
100081.109659397
100081.107379965
100081.10737996
100081.107379952
100081.107379938
100081.107379919
100081.107379895
100081.107379868
100081.107379839
100081.107379808
100081.107379776
100081.107379743
100081.107379711
100081.107379679
100081.107379647
100081.107379617
100081.107379588
100081.10737956
100081.107379533
100081.107379509
100081.107379486
100081.107379466
100081.107379447
100081.107379431
100081.107379417
100081.107379405
100081.107379396
100081.107379389
100081.107379383
100081.10737938
100081.107379379
100081.10737938
100081.107379382
100081.107379386
100081.107379391
100081.107379398
100081.107379405
100081.107379414
100081.107379424
100081.107379434
100081.107379445
100081.107379457
100081.107379468
100081.10737948
100081.107379491
100081.107379501
100081.107379509
100081.107379516
100081.107379519
100081.107379519
100081.107379516
100081.105100025
100081.105100021
100081.105100014
100081.105100002
100081.105099985
100081.105099963
100081.105099938
100081.105099911
100081.105099882
100081.105099853
100081.105099822
100081.105099792
100081.105099762
100081.105099733
100081.105099704
100081.105099677
100081.105099651
100081.105099626
100081.105099604
100081.105099583
100081.105099564
100081.105099548
100081.105099533
100081.105099521
100081.105099511
100081.105099503
100081.105099497
100081.105099494
100081.105099492
100081.105099492
100081.105099494
100081.105099498
100081.105099503
100081.10509951
100081.105099517
100081.105099526
100081.105099536
100081.105099546
100081.105099557
100081.105099568
100081.10509958
100081.105099591
100081.105099602
100081.105099613
100081.105099622
100081.10509963
100081.105099636
100081.105099638
100081.105099637
100081.105099634
100081.102820087
100081.102820083
100081.102820077
100081.102820067
100081.102820051
100081.102820032
100081.102820009
100081.102819984
100081.102819958
100081.10281993
100081.102819902
100081.102819874
100081.102819846
100081.102819818
100081.102819792
100081.102819766
100081.102819742
100081.10281972
100081.102819699
100081.10281968
100081.102819663
100081.102819648
100081.102819636
100081.102819625
100081.102819617
100081.102819611
100081.102819607
100081.102819605
100081.102819604
100081.102819606
100081.102819609
100081.102819614
100081.102819621
100081.102819628
100081.102819637
100081.102819647
100081.102819657
100081.102819668
100081.10281968
100081.102819691
100081.102819703
100081.102819714
100081.102819725
100081.102819735
100081.102819744
100081.102819751
100081.102819755
100081.102819757
100081.102819756
100081.102819753
100081.10054015
100081.100540147
100081.100540141
100081.100540133
100081.100540119
100081.100540102
100081.100540081
100081.100540059
100081.100540034
100081.100540009
100081.100539983
100081.100539957
100081.100539931
100081.100539905
100081.100539881
100081.100539857
100081.100539835
100081.100539814
100081.100539796
100081.100539778
100081.100539763
100081.10053975
100081.100539739
100081.100539731
100081.100539724
100081.100539719
100081.100539717
100081.100539716
100081.100539718
100081.100539721
100081.100539725
100081.100539732
100081.100539739
100081.100539748
100081.100539758
100081.100539768
100081.10053978
100081.100539791
100081.100539803
100081.100539815
100081.100539827
100081.100539838
100081.100539849
100081.100539858
100081.100539867
100081.100539872
100081.100539876
100081.100539877
100081.100539876
100081.100539872
100081.098260215
100081.098260212
100081.098260208
100081.098260201
100081.098260189
100081.098260174
100081.098260156
100081.098260135
100081.098260113
100081.09826009
100081.098260066
100081.098260042
100081.098260018
100081.098259994
100081.098259972
100081.09825995
100081.09825993
100081.098259911
100081.098259894
100081.098259879
100081.098259866
100081.098259854
100081.098259845
100081.098259838
100081.098259833
100081.09825983
100081.098259829
100081.09825983
100081.098259833
100081.098259837
100081.098259843
100081.098259851
100081.098259859
100081.098259869
100081.09825988
100081.098259891
100081.098259903
100081.098259916
100081.098259928
100081.09825994
100081.098259952
100081.098259964
100081.098259974
100081.098259983
100081.09825999
100081.098259995
100081.098259999
100081.098259999
100081.098259997
100081.098259993
100081.095980283
100081.095980281
100081.095980278
100081.095980273
100081.095980263
100081.09598025
100081.095980234
100081.095980215
100081.095980195
100081.095980174
100081.095980152
100081.09598013
100081.095980108
100081.095980086
100081.095980066
100081.095980046
100081.095980028
100081.095980011
100081.095979995
100081.095979982
100081.09597997
100081.095979961
100081.095979953
100081.095979948
100081.095979944
100081.095979943
100081.095979944
100081.095979946
100081.09597995
100081.095979956
100081.095979963
100081.095979972
100081.095979982
100081.095979993
100081.095980004
100081.095980017
100081.095980029
100081.095980042
100081.095980055
100081.095980068
100081.09598008
100081.095980091
100081.095980101
100081.09598011
100081.095980117
100081.095980121
100081.095980123
100081.095980122
100081.09598012
100081.095980115
100081.093700355
100081.093700354
100081.093700352
100081.093700349
100081.093700341
100081.09370033
100081.093700316
100081.093700299
100081.093700281
100081.093700262
100081.093700242
100081.093700222
100081.093700202
100081.093700182
100081.093700163
100081.093700146
100081.093700129
100081.093700114
100081.093700101
100081.093700089
100081.093700079
100081.093700071
100081.093700065
100081.093700061
100081.093700059
100081.093700059
100081.093700061
100081.093700065
100081.093700071
100081.093700078
100081.093700086
100081.093700096
100081.093700107
100081.093700119
100081.093700132
100081.093700145
100081.093700158
100081.093700172
100081.093700185
100081.093700198
100081.09370021
100081.093700221
100081.093700231
100081.093700239
100081.093700245
100081.093700249
100081.09370025
100081.093700248
100081.093700245
100081.09370024
100081.091420431
100081.091420432
100081.091420431
100081.09142043
100081.091420424
100081.091420415
100081.091420402
100081.091420388
100081.091420372
100081.091420355
100081.091420337
100081.091420318
100081.0914203
100081.091420283
100081.091420266
100081.09142025
100081.091420235
100081.091420222
100081.09142021
100081.0914202
100081.091420192
100081.091420185
100081.091420181
100081.091420179
100081.091420178
100081.09142018
100081.091420183
100081.091420189
100081.091420195
100081.091420204
100081.091420214
100081.091420225
100081.091420236
100081.091420249
100081.091420263
100081.091420277
100081.091420291
100081.091420305
100081.091420318
100081.091420331
100081.091420343
100081.091420355
100081.091420364
100081.091420372
100081.091420377
100081.09142038
100081.09142038
100081.091420377
100081.091420373
100081.091420367
100081.089140512
100081.089140514
100081.089140515
100081.089140516
100081.089140512
100081.089140505
100081.089140495
100081.089140482
100081.089140468
100081.089140453
100081.089140437
100081.089140421
100081.089140404
100081.089140389
100081.089140373
100081.089140359
100081.089140346
100081.089140335
100081.089140325
100081.089140316
100081.08914031
100081.089140305
100081.089140302
100081.089140301
100081.089140302
100081.089140305
100081.08914031
100081.089140316
100081.089140325
100081.089140334
100081.089140345
100081.089140357
100081.08914037
100081.089140384
100081.089140398
100081.089140413
100081.089140427