/*--------------------------------*- C++ -*----------------------------------*\
  =========                 |
  \\      /  F ield         | OpenFOAM: The Open Source CFD Toolbox
   \\    /   O peration     | Website:  https://openfoam.org
    \\  /    A nd           | Version:  10
     \\/     M anipulation  |
\*---------------------------------------------------------------------------*/
FoamFile
{
    format      ascii;
    class       volScalarField;
    location    "4";
    object      p_rgh;
}
// * * * * * * * * * * * * * * * * * * * * * * * * * * * * * * * * * * * * * //

dimensions      [1 -1 -2 0 0 0 0];

internalField   nonuniform List<scalar> 
2500
(
81.2798295828688
81.2798383775371
81.2798469499685
81.2798516929179
81.2798538927018
81.2798548860155
81.2798553085886
81.2798554669862
81.2798555089394
81.2798554974142
81.2798554620676
81.2798554149922
81.2798553617758
81.2798553054745
81.2798552475724
81.2798551892047
81.2798551308806
81.2798550734879
81.2798550174775
81.2798549631698
81.279854910943
81.2798548610444
81.279854813678
81.2798547689454
81.2798547270213
81.279854687964
81.2798546517006
81.2798546183185
81.2798545877304
81.279854559878
81.2798545346595
81.2798545119585
81.2798544916295
81.2798544734978
81.2798544574034
81.2798544430261
81.2798544299585
81.2798544175894
81.2798544045072
81.2798543884564
81.279854364082
81.2798543188692
81.2798542238743
81.2798540167569
81.2798535515612
81.2798525304388
81.2798503199156
81.2798455554148
81.2798368609947
81.2798282037547
81.2803750929015
81.2804022725904
81.2804248863831
81.2804374310508
81.2804435839789
81.2804464786896
81.2804477690952
81.280448298683
81.280448488571
81.2804485321685
81.2804485158995
81.2804484751541
81.2804484239896
81.2804483683285
81.2804483106593
81.2804482523643
81.2804481941857
81.2804481368366
81.2804480808991
81.2804480266495
81.28044797451
81.2804479247134
81.2804478774342
81.2804478328035
81.2804477909376
81.2804477519385
81.2804477157479
81.2804476824094
81.2804476519086
81.2804476240708
81.2804475989105
81.2804475762823
81.2804475559387
81.2804475377634
81.2804475216544
81.2804475072626
81.2804474939476
81.2804474807781
81.2804474653094
81.2804474418663
81.2804473958822
81.2804472909047
81.2804470404517
81.2804464536748
81.2804451184784
81.2804422103945
81.2804360772279
81.2804234869982
81.2804004918435
81.2803736164933
81.2808771358395
81.280913833325
81.2809416949021
81.2809568845842
81.2809642927314
81.2809677603072
81.280969304411
81.2809699407517
81.280970172942
81.2809702322411
81.2809702213272
81.2809701823426
81.2809701318183
81.2809700764337
81.2809700189537
81.2809699608188
81.2809699028294
81.280969845684
81.280969789892
81.2809697358462
81.2809696838813
81.2809696342447
81.2809695871692
81.2809695427131
81.2809695010073
81.2809694621537
81.2809694261232
81.2809693929303
81.2809693625604
81.2809693348681
81.2809693098097
81.2809692872834
81.2809692670126
81.28096924891
81.2809692328883
81.2809692185547
81.2809692052542
81.2809691919683
81.2809691760485
81.2809691509465
81.2809690996073
81.2809689790447
81.2809686864348
81.2809679936327
81.2809664066444
81.2809629272961
81.2809555299755
81.2809402326966
81.2809117708966
81.2808747837989
81.2812596255535
81.2812938974384
81.2813169903238
81.2813290939375
81.2813347482588
81.2813372891833
81.2813383836765
81.2813388185168
81.2813389672228
81.2813389942894
81.2813389716757
81.281338928733
81.2813388770155
81.2813388213835
81.2813387640199
81.2813387061033
81.2813386484049
81.2813385915651
81.2813385360787
81.2813384823385
81.2813384306792
81.2813383813482
81.2813383345347
81.2813382903842
81.2813382489549
81.2813382103632
81.28133817458
81.2813381416345
81.2813381114684
81.2813380839943
81.2813380591397
81.281338036817
81.2813380167499
81.2813379988511
81.2813379830186
81.2813379689032
81.2813379559811
81.2813379434374
81.281337929453
81.2813379094732
81.2813378719293
81.2813377872371
81.2813375835831
81.2813370983495
81.2813359629217
81.2813333988015
81.2813277224777
81.2813154655596
81.2812917388219
81.2812565564673
81.2815090724034
81.2815343683615
81.281549702122
81.2815574087581
81.2815608544333
81.2815623344068
81.2815629463439
81.2815631735721
81.281563238168
81.2815632330166
81.281563198645
81.2815631516423
81.2815630986879
81.2815630428231
81.2815629856195
81.2815629279939
81.2815628706885
81.2815628142707
81.2815627592208
81.2815627059172
81.2815626546944
81.2815626057709
81.2815625593794
81.2815625156363
81.2815624746145
81.2815624363866
81.2815624009818
81.2815623683855
81.2815623385541
81.2815623114147
81.2815622868802
81.2815622648341
81.2815622450871
81.2815622275375
81.2815622120106
81.2815621982154
81.2815621858026
81.2815621741756
81.281562162214
81.2815621473128
81.2815621231275
81.2815620733163
81.2815619577887
81.2815616850276
81.2815610349935
81.2815595275606
81.281556048707
81.2815482015721
81.2815323336545
81.2815059099084
81.2816520023334
81.2816676949296
81.2816763242154
81.2816804614122
81.2816822249588
81.2816829375661
81.2816832124954
81.2816832971002
81.2816833039105
81.2816832763056
81.2816832334647
81.2816831834061
81.2816831294913
81.2816830734955
81.2816830164957
81.281682959263
81.2816829024523
81.2816828465584
81.2816827920469
81.2816827393108
81.2816826886265
81.2816826402704
81.2816825944028
81.2816825511982
81.2816825106711
81.2816824729671
81.2816824380425
81.2816824059264
81.2816823765461
81.2816823498433
81.2816823257308
81.2816823040921
81.2816822847672
81.2816822676396
81.2816822525492
81.2816822392197
81.2816822274326
81.2816822167515
81.2816822065797
81.281682195593
81.2816821809247
81.2816821550368
81.2816820993175
81.2816819715517
81.2816816603299
81.2816809200303
81.2816791263322
81.2816748902696
81.2816658857919
81.2816492142592
81.2817254191468
81.2817338935856
81.281738134654
81.2817400417698
81.2817408011033
81.2817410712451
81.2817411554861
81.2817411594151
81.2817411327705
81.2817410916032
81.2817410433345
81.281740991195
81.2817409365962
81.2817408805713
81.2817408238479
81.2817407670809
81.2817407108087
81.2817406555405
81.2817406016839
81.2817405496025
81.2817404995876
81.2817404518864
81.2817404066882
81.2817403641093
81.2817403242516
81.2817402871588
81.2817402528308
81.2817402212968
81.281740192484
81.2817401663342
81.2817401427455
81.2817401216307
81.2817401028296
81.2817400862405
81.281740071674
81.2817400589556
81.2817400478962
81.2817400382337
81.2817400296626
81.28174002163
81.2817400132335
81.2817400017957
81.281739980448
81.2817399342894
81.2817398143088
81.2817395167367
81.2817387324903
81.2817367659736
81.2817322977062
81.281723141321
81.2817597419489
81.2817638079578
81.2817656487314
81.2817663856695
81.2817666367046
81.2817666881019
81.2817666783521
81.281766641725
81.2817665973416
81.2817665484326
81.2817664967588
81.2817664431932
81.2817663881578
81.2817663321912
81.2817662758316
81.281766219603
81.281766163971
81.2817661093868
81.2817660562723
81.2817660049623
81.2817659557331
81.2817659088032
81.2817658643617
81.2817658225395
81.2817657834239
81.2817657470587
81.2817657134583
81.2817656826228
81.2817656544794
81.2817656289844
81.2817656060361
81.281765585547
81.2817655673716
81.2817655514227
81.2817655375402
81.2817655255494
81.2817655153194
81.2817655067192
81.281765499647
81.2817654940009
81.2817654898536
81.2817654869141
81.2817654839164
81.2817654787359
81.2817654527607
81.2817653736856
81.281765100648
81.2817643298768
81.2817623664014
81.2817578948743
81.2817745024367
81.2817762494378
81.2817769435496
81.2817771461705
81.2817771725677
81.2817771289556
81.2817770775873
81.2817770221154
81.2817769686808
81.2817769153771
81.2817768615787
81.2817768070963
81.2817767518136
81.2817766960216
81.281776640084
81.281776584452
81.2817765295476
81.2817764757783
81.2817764235078
81.2817763730563
81.2817763247003
81.2817762786435
81.2817762350751
81.281776194126
81.2817761558545
81.2817761203332
81.2817760875478
81.2817760574981
81.2817760301405
81.2817760054022
81.281775983196
81.2817759634199
81.2817759459867
81.2817759307654
81.2817759176396
81.2817759064783
81.2817758971796
81.2817758896999
81.2817758840683
81.2817758804595
81.2817758794408
81.2817758817109
81.2817758884339
81.2817759024474
81.2817759181053
81.2817759335594
81.2817758858873
81.2817756623117
81.281774906427
81.2817729453818
81.2817803685466
81.281781033671
81.2817812399153
81.2817812295398
81.2817811699933
81.2817810909619
81.2817810231791
81.28178095966
81.2817809016997
81.2817808459367
81.2817807908141
81.2817807357642
81.2817806804233
81.2817806249222
81.2817805695231
81.2817805145896
81.2817804605002
81.2817804076039
81.2817803562648
81.2817803067737
81.2817802593781
81.2817802143109
81.2817801717174
81.2817801317287
81.2817800944176
81.2817800598277
81.281780027959
81.2817799988115
81.2817799723125
81.2817799484328
81.281779927056
81.281779908124
81.2817798915057
81.2817798771139
81.2817798648321
81.281779854573
81.2817798462784
81.2817798399628
81.2817798357428
81.2817798339383
81.2817798353208
81.2817798410397
81.2817798530741
81.2817798756587
81.2817799078912
81.2817799583863
81.2817799963814
81.2817799909826
81.2817797533789
81.2817789845285
81.2817825045058
81.2817827159743
81.2817827378021
81.2817826571991
81.2817825718957
81.2817824835365
81.2817824106896
81.2817823442747
81.2817822842335
81.2817822271463
81.2817821713252
81.2817821160133
81.2817820608325
81.281782005768
81.2817819510237
81.2817818968761
81.2817818436743
81.2817817917676
81.281781741447
81.2817816930037
81.2817816466995
81.2817816026945
81.2817815611779
81.2817815222515
81.2817814859736
81.2817814524169
81.2817814215523
81.2817813933798
81.2817813678557
81.2817813449219
81.2817813244765
81.2817813064466
81.2817812907306
81.281781277241
81.2817812658905
81.2817812565918
81.2817812493449
81.2817812442081
81.2817812413268
81.2817812411377
81.2817812444846
81.2817812526046
81.2817812676367
81.2817812937428
81.2817813313886
81.2817813911097
81.281781454396
81.2817815206654
81.2817814806331
81.2817812206922
81.2817831809371
81.2817832220462
81.2817831849679
81.2817830905988
81.2817830030399
81.2817829157866
81.281782842867
81.2817827761755
81.2817827154504
81.2817826578539
81.2817826017854
81.2817825465609
81.2817824917147
81.2817824372323
81.2817823832302
81.2817823299993
81.2817822778015
81.2817822269426
81.2817821777426
81.2817821304488
81.2817820852943
81.281782042468
81.281782002101
81.2817819643242
81.2817819291959
81.2817818967305
81.2817818669719
81.2817818398762
81.2817818153999
81.2817817934701
81.2817817740288
81.281781757003
81.281781742262
81.2817817297473
81.2817817193718
81.2817817111063
81.2817817049363
81.2817817009491
81.2817816993629
81.2817817006144
81.281781705562
81.28178171537
81.2817817320902
81.2817817592877
81.2817817975301
81.2817818562035
81.2817819213669
81.281782001417
81.2817820251075
81.2817819602351
81.2817833188747
81.2817833048175
81.2817832555011
81.2817831668508
81.2817830850254
81.2817830027634
81.2817829319538
81.2817828663392
81.2817828058905
81.2817827484105
81.2817826925166
81.2817826376413
81.2817825833481
81.2817825295933
81.2817824764788
81.281782424252
81.2817823731457
81.2817823234509
81.2817822754587
81.2817822294019
81.2817821854842
81.2817821438948
81.2817821047793
81.2817820682249
81.2817820343043
81.2817820030468
81.2817819744669
81.2817819485063
81.281781925165
81.2817819043412
81.2817818859767
81.2817818699841
81.2817818563053
81.2817818448239
81.2817818354815
81.2817818282638
81.2817818231852
81.281781820333
81.2817818199546
81.2817818225012
81.2817818287294
81.2817818397452
81.2817818573385
81.2817818843032
81.2817819210904
81.2817819750053
81.2817820342898
81.2817821081844
81.2817821454373
81.2817821455683
81.2817832670116
81.2817832400469
81.2817831936263
81.2817831158027
81.2817830417916
81.2817829656706
81.2817828979605
81.2817828342231
81.2817827746767
81.2817827178224
81.281782662496
81.2817826082173
81.2817825546808
81.2817825018137
81.2817824497179
81.281782398597
81.2817823486839
81.2817823002406
81.2817822535435
81.2817822087964
81.2817821662029
81.2817821259523
81.2817820881464
81.2817820529017
81.2817820202763
81.2817819902848
81.2817819629417
81.281781938218
81.2817819160555
81.2817818964104
81.2817818791809
81.2817818643234
81.2817818517215
81.2817818413168
81.2817818330659
81.281781826925
81.2817818229232
81.2817818211915
81.2817818219337
81.2817818255862
81.2817818328622
81.2817818446783
81.2817818625772
81.2817818886397
81.2817819230841
81.2817819711927
81.281782022721
81.2817820853234
81.2817821197677
81.2817821362842
81.2817831493012
81.2817831229622
81.2817830830172
81.2817830161948
81.2817829498963
81.2817828800617
81.2817828158877
81.2817827545077
81.2817826963728
81.281782640508
81.2817825860402
81.2817825326492
81.2817824800441
81.2817824282247
81.2817823772639
81.2817823273508
81.2817822787329
81.2817822316283
81.2817821862845
81.2817821429344
81.2817821017525
81.2817820628843
81.28178202649
81.2817819926277
81.2817819613556
81.2817819327029
81.2817819066695
81.2817818832264
81.2817818623298
81.2817818438925
81.2817818278854
81.2817818141921
81.2817818027397
81.2817817934701
81.2817817863106
81.2817817812756
81.2817817783653
81.2817817776813
81.2817817794712
81.2817817840987
81.2817817921896
81.2817818045005
81.2817818223266
81.2817818471085
81.2817818788462
81.2817819211632
81.2817819651536
81.2817820164346
81.281782044156
81.2817820610217
81.2817830073764
81.2817829849664
81.2817829514388
81.2817828942934
81.281782835038
81.2817827711697
81.2817827107065
81.2817826519458
81.2817825955717
81.2817825410166
81.2817824876984
81.2817824353988
81.2817823839141
81.2817823332734
81.2817822835641
81.2817822349898
81.2817821877397
81.2817821420613
81.2817820981727
81.2817820562777
81.2817820165656
81.2817819791817
81.281781944228
81.2817819118209
81.2817818819749
81.2817818547192
81.2817818300537
81.2817818079639
81.281781788377
81.2817817712348
81.2817817564646
81.2817817439791
81.28178173372
81.2817817256146
81.2817817195901
81.2817817156465
81.2817817137984
81.2817817141622
81.2817817169125
81.2817817223986
81.2817817311297
81.2817817437026
81.2817817611794
81.2817817844771
81.2817818134499
81.2817818503972
81.2817818876501
81.2817819291231
81.2817819501652
81.281781963291
81.2817828544066
81.2817828360421
81.2817828078987
81.2817827589024
81.2817827058607
81.2817826475075
81.2817825907405
81.2817825347884
81.2817824804079
81.2817824274389
81.2817823754885
81.2817823244695
81.2817822742654
81.281782224949
81.2817821766221
81.2817821294593
81.2817820836644
81.2817820394848
81.2817819971096
81.2817819567572
81.281781918573
81.2817818827316
81.2817818493058
81.281781818383
81.2817817900213
81.2817817642353
81.2817817409959
81.2817817203031
81.2817817020696
81.2817816862662
81.2817816727911
81.2817816615716
81.2817816525348
81.2817816455936
81.2817816407332
81.2817816378956
81.2817816370953
81.2817816384486
81.2817816421011
81.2817816483293
81.2817816575553
81.28178167023
81.281781687183
81.2817817089235
81.2817817352334
81.2817817673349
81.2817817988107
81.2817818321491
81.281781847676
81.2817818567419
81.2817826945247
81.2817826794344
81.2817826556275
81.2817826133687
81.2817825657694
81.2817825124512
81.281782459293
81.2817824062076
81.2817823540099
81.2817823028163
81.281782252423
81.2817822028592
81.2817821540957
81.2817821062199
81.2817820593627
81.2817820136988
81.281781969461
81.281781926853
81.281781886064
81.2817818472977
81.2817818107287
81.281781776459
81.2817817446048
81.2817817152536
81.2817816884199
81.2817816641327
81.2817816423776
81.2817816231254
81.2817816063034
81.2817815918679
81.2817815797171
81.2817815697927
81.2817815620219
81.281781556303
81.2817815525777
81.2817815508461
81.281781551108
81.2817815534072
81.2817815578892
81.2817815647722
81.2817815743911
81.2817815870512
81.2817816033639
81.2817816235765
81.2817816473544
81.2817816752067
81.2817817017931
81.2817817285541
81.2817817397445
81.2817817454779
81.2817825289239
81.2817825163947
81.281782495993
81.281782459293
81.2817824164667
81.2817823677178
81.2817823180667
81.2817822678335
81.2817822179495
81.2817821686767
81.2817821200006
81.2817820720229
81.281782024831
81.2817819784977
81.2817819332122
81.281781889149
81.2817818465264
81.2817818055482
81.2817817664036
81.2817817292962
81.2817816943716
81.2817816617462
81.2817816315219
81.2817816037714
81.2817815785238
81.2817815557937
81.281781535552
81.2817815177696
81.2817815024027
81.2817814893642
81.2817814785958
81.2817814699811
81.2817814634618
81.2817814589653
81.2817814564187
81.2817814557784
81.281781457059
81.2817814602895
81.2817814655573
81.2817814730224
81.2817814829323
81.2817814955197
81.281781511163
81.2817815298913
81.2817815513408
81.2817815755116
81.2817815979943
81.2817816194729
81.2817816273746
81.2817816305615
81.28178235823
81.2817823476362
81.2817823299411
81.2817822978686
81.2817822592187
81.2817822146026
81.2817821682838
81.2817821209028
81.2817820733762
81.2817820261407
81.2817819792981
81.2817819330521
81.2817818875192
81.2817818428302
81.2817817992036
81.2817817568139
81.2817817158793
81.2817816765892
81.2817816391616
81.2817816037568
81.2817815705203
81.2817815395829
81.281781511032
81.2817814849259
81.2817814612936
81.2817814401496
81.281781421465
81.2817814052105
81.2817813913134
81.2817813797155
81.2817813703296
81.2817813630681
81.281781357844
81.2817813545698
81.2817813531874
81.2817813536531
81.2817813559232
81.2817813600414
81.2817813660367
81.2817813740403
81.2817813841975
81.2817813966394
81.2817814116133
81.2817814289883
81.2817814483278
81.2817814693262
81.2817814883601
81.2817815056187
81.281781511032
81.2817815123854
81.2817821828939
81.2817821737699
81.2817821582139
81.2817821300268
81.2817820950586
81.2817820541968
81.2817820110649
81.2817819664488
81.2817819213233
81.2817818761978
81.2817818313051
81.2817817868781
81.2817817430914
81.2817817001487
81.2817816582537
81.2817816175957
81.2817815784074
81.281781540878
81.2817815051967
81.2817814715527
81.2817814400478
81.2817814108421
81.2817813839938
81.2817813595611
81.2817813375732
81.2817813180445
81.2817813009606
81.281781286234
81.2817812738504
81.2817812637077
81.2817812557332
81.2817812498251
81.2817812459107
81.281781243888
81.2817812436697
81.2817812452122
81.2817812484718
81.2817812534486
81.2817812601716
81.2817812686553
81.2817812790163
81.2817812912981
81.2817813056172
81.2817813217407
81.2817813392176
81.2817813575093
81.2817813736619
81.2817813875445
81.2817813910951
81.2817813911097
81.2817820034252
81.2817819954362
81.281781981641
81.2817819567426
81.2817819250486
81.2817818875919
81.2817818474869
81.2817818055773
81.2817817628675
81.2817817198957
81.2817816769966
81.2817816344759
81.2817815925373
81.2817815514136
81.2817815113085
81.2817814724549
81.2817814350565
81.281781399317
81.2817813654401
81.2817813335569
81.2817813038419
81.2817812763824
81.2817812512658
81.2817812285502
81.2817812082503
81.281781190366
81.2817811748682
81.2817811617278
81.2817811508576
81.2817811421992
81.2817811356508
81.2817811311252
81.2817811285058
81.28178112772
81.2817811286804
81.2817811312998
81.2817811355199
81.2817811413261
81.2817811487039
81.2817811576388
81.2817811681889
81.2817811802961
81.2817811940185
81.2817812090216
81.2817812248395
81.2817812408175
81.2817812545836
81.281781265774
81.2817812679568
81.281781267011
81.2817818203912
81.2817818132899
81.2817818009498
81.28178177886
81.2817817501054
81.281781715792
81.2817816785246
81.2817816392635
81.2817815989401
81.2817815581802
81.281781517333
81.2817814767768
81.2817814367299
81.2817813974689
81.2817813592264
81.2817813222209
81.281781286656
81.2817812527646
81.2817812207068
81.2817811906571
81.2817811627319
81.2817811370624
81.2817811137065
81.2817810927081
81.2817810741108
81.2817810578854
81.281781044032
81.2817810324777
81.28178102315
81.2817810159759
81.2817810108681
81.2817810077104
81.2817810064153
81.2817810068664
81.2817810089764
81.281781012658
81.2817810178385
81.2817810244451
81.2817810324632
81.2817810418346
81.2817810525448
81.2817810645065
81.281781077676
81.2817810916749
81.2817811060377
81.2817811200512
81.2817811318237
81.2817811408459
81.2817811420246
81.2817811403947
81.2817816344468
81.2817816280876
81.28178161697
81.281781597354
81.2817815712478
81.2817815398157
81.2817815052695
81.281781468555
81.2817814306181
81.2817813920556
81.2817813533184
81.2817813147703
81.2817812766734
81.2817812393332
81.2817812029825
81.2817811678688
81.2817811341811
81.2817811021523
81.2817810719425
81.2817810437409
81.2817810176348
81.2817809937696
81.2817809721892
81.2817809529515
81.2817809360567
81.2817809215194
81.2817809092812
81.2817808993277
81.2817808915424
81.2817808858526
81.2817808821856
81.2817808804102
81.2817808804102
81.2817808821128
81.2817808853724
81.2817808900872
81.2817808961991
81.281780903606
81.2817809122353
81.2817809220287
81.2817809328844
81.2817809447151
81.2817809573899
81.2817809705011
81.2817809835979
81.2817809959379
81.2817810060369
81.2817810133129
81.2817810137494
81.2817810116394
81.2817814462614
81.2817814405134
81.2817814304726
81.281781413054
81.281781389378
81.2817813606234
81.2817813286674
81.2817812944268
81.2817812588328
81.2817812224821
81.2817811858695
81.2817811493587
81.2817811132554
81.2817810778797
81.2817810434499
81.2817810102424
81.281780978461
81.281780948324
81.2817809199914
81.2817808936379
81.2817808693944
81.2817808473337
81.2817808275431
81.2817808100517
81.2817807948886
81.2817807820247
81.2817807714455
81.2817807630636
81.2817807568354
81.281780752659
81.281780750418
81.2817807500105
81.2817807513202
81.2817807542306
81.2817807586252
81.2817807643878
81.2817807714164
81.28178077958
81.2817807888059
81.2817807989923
81.2817808100226
81.2817808217369
81.2817808339605
81.281780846286
81.2817808582768
81.2817808691761
81.2817808778927
81.2817808837281
81.2817808836262
81.2817808811669
81.2817812565481
81.2817812513531
81.2817812422873
81.2817812268622
81.2817812054273
81.2817811792047
81.281781149708
81.2817811178684
81.2817810846027
81.2817810504639
81.2817810159613
81.2817809815169
81.2817809474363
81.2817809140397
81.2817808815744
81.2817808503023
81.2817808204418
81.2817807922111
81.2817807657702
81.2817807412939
81.2817807188694
81.2817806986423
81.281780680627
81.2817806649109
81.2817806514649
81.2817806402891
81.2817806313396
81.2817806245585
81.2817806198727
81.2817806171806
81.2817806163657
81.2817806173407
81.2817806199455
81.2817806240637
81.2817806295789
81.2817806363455
81.2817806442617
81.2817806531821
81.2817806629901
81.2817806735547
81.2817806847306
81.2817806963576
81.2817807081738
81.2817807198298
81.2817807308602
81.2817807405227
81.2817807480315
81.2817807526735
81.2817807521496
81.281780749443
81.281781066049
81.2817810613924
81.2817810531997
81.2817810396373
81.2817810202978
81.2817809964763
81.2817809693515
81.2817809398548
81.2817809088592
81.2817808769178
81.2817808445543
81.2817808121763
81.281780780133
81.2817807487154
81.2817807182291
81.281780688907
81.2817806609819
81.2817806346575
81.281780610123
81.2817805875093
81.2817805669474
81.2817805485247
81.2817805323139
81.2817805183295
81.2817805066006
81.2817804971128
81.2817804897932
81.2817804845981
81.2817804814549
81.2817804802326
81.2817804808437
81.2817804831575
81.2817804870429
81.2817804923543
81.2817804989609
81.2817805067316
81.2817805155064
81.2817805251543
81.2817805355153
81.2817805464583
81.2817805578088
81.2817805693485
81.2817805808154
81.2817805918603
81.2817806020321
81.2817806106032
81.2817806170933
81.2817806206731
81.2817806198436
81.2817806169187
81.2817808754917
81.2817808713589
81.2817808640393
81.2817808522377
81.2817808349064
81.281780813355
81.2817807885294
81.2817807613028
81.2817807325482
81.281780702775
81.2817806725507
81.2817806422536
81.281780612233
81.2817805828381
81.2817805543309
81.2817805269588
81.281780500969
81.2817804765655
81.2817804539081
81.2817804331717
81.2817804144433
81.2817803978396
81.2817803834041
81.2817803711805
81.2817803611688
81.2817803533253
81.2817803476355
81.2817803440121
81.2817803423823
81.2817803426296
81.2817803446378
81.2817803482903
81.2817803534272
81.2817803599173
81.2817803676007
81.2817803763319
81.2817803859507
81.2817803962971
81.281780407211
81.2817804185033
81.2817804299993
81.2817804414808
81.2817804526421
81.2817804631486
81.2817804725491
81.2817804801452
81.2817804857186
81.2817804883671
81.2817804872611
81.2817804841179
81.2817806856619
81.2817806820967
81.2817806756211
81.2817806655512
81.2817806501407
81.2817806308012
81.281780608173
81.2817805831728
81.2817805566301
81.2817805290106
81.2817805008817
81.281780472651
81.2817804446822
81.281780417281
81.2817803907528
81.2817803653452
81.2817803412763
81.2817803187791
81.2817802980135
81.2817802791251
81.2817802622303
81.2817802474165
81.2817802347417
81.2817802242353
81.2817802159116
81.2817802097125
81.2817802056234
81.281780203557
81.2817802034115
81.2817802050995
81.2817802084901
81.2817802134523
81.2817802198115
81.2817802274512
81.2817802361824
81.2817802458594
81.2817802562931
81.2817802673089
81.2817802787467
81.2817802904028
81.2817803020444
81.2817803134822
81.2817803243524
81.2817803343496
81.2817803430517
81.2817803497455
81.2817803544895
81.2817803562502
81.2817803548678
81.2817803515063
81.2817804972583
81.2817804943043
81.2817804887309
81.2817804803781
81.2817804668302
81.2817804496444
81.2817804291844
81.2817804063525
81.281780381978
81.2817803564831
81.2817803304497
81.2817803042853
81.2817802783247
81.2817802529316
81.281780228368
81.2817802048958
81.2817801827478
81.2817801621422
81.2817801432539
81.281780126199
81.2817801111087
81.2817800980702
81.2817800871417
81.2817800783378
81.281780071673
81.2817800671037
81.2817800645862
81.2817800640478
81.2817800653866
81.2817800684861
81.28178007323
81.2817800794583
81.2817800870253
81.281780095771
81.2817801055207
81.2817801161
81.2817801273195
81.2817801390047
81.2817801509373
81.2817801629135
81.2817801747005
81.2817801860801
81.281780196703
81.28178020622
81.2817802142963
81.2817802201171
81.2817802240752
81.2817802249483
81.2817802232603
81.2817802196223
81.2817803110665
81.281780308811
81.2817803041835
81.2817802975769
81.2817802858481
81.2817802708014
81.2817802524223
81.2817802317586
81.2817802095087
81.2817801861092
81.2817801621422
81.2817801380006
81.2817801140627
81.2817800906341
81.2817800680205
81.2817800464836
81.2817800262274
81.2817800074845
81.2817799904296
81.2817799751792
81.2817799618788
81.2817799505865
81.2817799413606
81.2817799342301
81.2817799292097
81.2817799262266
81.2817799252516
81.2817799261975
81.2817799289769
81.2817799334589
81.2817799395125
81.2817799469922
81.2817799557379
81.2817799655604
81.2817799762997
81.2817799877521
81.2817799997283
81.2817800120247
81.2817800244375
81.2817800367193
81.2817800486519
81.2817800599732
81.2817800703197
81.2817800794001
81.2817800868506
81.2817800918419
81.2817800950143
81.2817800949852
81.2817800929188
81.2817800889025
81.2817801277415
81.2817801263154
81.2817801227211
81.2817801179335
81.2817801080237
81.281780095087
81.2817800787743
81.2817800601915
81.2817800400517
81.281780018704
81.2817799967888
81.2817799746699
81.2817799526965
81.2817799312324
81.2817799105396
81.2817798908945
81.2817798725155
81.2817798556061
81.2817798403557
81.2817798268952
81.2817798153264
81.2817798057513
81.2817797982134
81.2817797927273
81.2817797892785
81.2817797878524
81.2817797883908
81.2817797907919
81.2817797949683
81.2817798008036
81.2817798081378
81.2817798168253
81.2817798266915
81.2817798375618
81.281779849247
81.2817798615433
81.2817798742326
81.2817798871256
81.2817798999749
81.2817799125478
81.2817799245822
81.2817799358454
81.2817799459444
81.2817799545737
81.2817799614277
81.2817799655604
81.2817799679469
81.2817799669137
81.2817799643817
81.2817799598852
81.2817799480399
81.2817799475743
81.2817799451295
81.2817799422482
81.2817799341719
81.2817799233453
81.2817799090408
81.2817798925389
81.2817798744509
81.2817798551259
81.2817798352189
81.2817798150791
81.2817797950702
81.2817797755124
81.2817797567113
81.2817797389289
81.2817797223834
81.281779707293
81.2817796938034
81.2817796820891
81.2817796722375
81.2817796643212
81.2817796584131
81.2817796545132
81.281779652636
81.2817796527233
81.281779654717
81.2817796585296
81.2817796640738
81.2817796712043
81.2817796797608
81.2817796896124
81.2817797005846
81.2817797124444
81.2817797250318
81.2817797381285
81.2817797515163
81.2817797649477
81.2817797782191
81.2817797910539
81.2817798031756
81.281779814366
81.2817798242031
81.2817798323667
81.2817798386095
81.2817798418691
81.2817798434262
81.2817798412725
81.2817798381293
81.2817798330216
81.2817797726311
81.2817797733005
81.2817797721946
81.2817797713215
81.2817797651078
81.2817797563766
81.2817797440657
81.2817797296157
81.2817797135358
81.2817796962045
81.2817796782765
81.2817796600721
81.2817796419695
81.2817796243035
81.281779607365
81.2817795914016
81.2817795766459
81.2817795633018
81.2817795515439
81.2817795415176
81.2817795333249
81.2817795270385
81.2817795227165
81.2817795203737
81.2817795199953
81.2817795215378
81.281779524943
81.2817795301235
81.2817795369774
81.2817795453593
81.2817795551236
81.2817795660958
81.2817795780866
81.2817795909214
81.2817796043673
81.2817796182208
81.2817796322342
81.2817796461895
81.2817796598247
81.2817796728777
81.2817796850723
81.2817796961754
81.2817797057214
81.2817797134194
81.281779719051
81.2817797213793
81.2817797220487
81.281779718629
81.2817797147
81.2817797087628
81.28177960217
81.2817796042073
81.2817796046293
81.2817796059098
81.2817796016025
81.2817795949668
81.2817795846349
81.281779572193
81.2817795580922
81.2817795427109
81.2817795267183
81.2817795104202
81.2817794941802
81.2817794783623
81.2817794632283
81.2817794490256
81.2817794360162
81.2817794243892
81.2817794143048
81.2817794059229
81.2817793993308
81.281779394616
81.2817793918366
81.281779390978
81.2817793920403
81.2817793949944
81.2817793997674
81.2817794062721
81.281779414363
81.2817794239527
81.2817794348375
81.281779446872
81.2817794598668
81.2817794736038
81.2817794878501
81.2817795024166
81.2817795170267