/*--------------------------------*- C++ -*----------------------------------*\
  =========                 |
  \\      /  F ield         | OpenFOAM: The Open Source CFD Toolbox
   \\    /   O peration     | Website:  https://openfoam.org
    \\  /    A nd           | Version:  10
     \\/     M anipulation  |
\*---------------------------------------------------------------------------*/
FoamFile
{
    format      ascii;
    class       surfaceScalarField;
    location    "4";
    object      phi;
}
// * * * * * * * * * * * * * * * * * * * * * * * * * * * * * * * * * * * * * //

dimensions      [1 0 -1 0 0 0 0];

internalField   nonuniform List<scalar> 
4900
(
-6.42397510890054e-12
6.65164711944638e-12
-7.64207704560721e-12
1.56245809169757e-12
-5.93033479306306e-12
-1.34067504655096e-12
-3.95796511043431e-12
-1.60326937636079e-12
-2.53345442578198e-12
-1.06097042054025e-12
-1.64545737681765e-12
-5.28497758219911e-13
-1.10769978768137e-12
-1.81083542722898e-13
-7.79691797688345e-13
2.64670547417869e-14
-5.70655809405645e-13
1.43677001842734e-13
-4.30188452949268e-13
2.10924198928752e-13
-3.30529693846635e-13
2.50833911485292e-13
-2.56344421807388e-13
2.75789377939898e-13
-1.99067275059447e-13
2.92461046376448e-13
-1.53625775270805e-13
3.04266932621024e-13
-1.16901048656327e-13
3.13065773659832e-13
-8.68243208879052e-14
3.19865525261729e-13
-6.19626064032979e-14
3.25245568790846e-13
-4.12446121528945e-14
3.29562983028193e-13
-2.38445767247641e-14
3.33034672189681e-13
-9.09732445865959e-15
3.35835960854837e-13
3.55240192313604e-15
3.38059792314865e-13
1.45877229069918e-14
3.39798399211912e-13
2.44209297940799e-14
3.4110889610204e-13
3.3440983533087e-14
3.42034758335967e-13
4.19914776185949e-14
3.42608831161809e-13
5.04314461893075e-14
3.42834396258174e-13
5.90874287731306e-14
3.42731920018119e-13
6.83133819638773e-14
3.42292299554334e-13
7.84696119576282e-14
3.41497695973689e-13
8.99447545493701e-14
3.4033648684512e-13
1.03188620705572e-13
3.38737994952858e-13
1.18727927813665e-13
3.36641851663597e-13
1.37168578143643e-13
3.3396127935972e-13
1.59302240880535e-13
3.30529489398594e-13
1.86175386007597e-13
3.26089445363294e-13
2.19222183982808e-13
3.20279897194541e-13
2.6048953246208e-13
3.12498340136724e-13
3.13115270651192e-13
3.01690660360172e-13
3.82148491753186e-13
2.85963919578376e-13
4.7621966418461e-13
2.61767141715426e-13
6.10703418869967e-13
2.22349701095132e-13
8.13428273252768e-13
1.55251886915882e-13
1.13484254021044e-12
3.78643304599879e-14
1.666566536359e-12
-1.70767614436681e-13
2.55079838433046e-12
-5.20542931428665e-13
3.98226376946277e-12
-1.06263611615145e-12
5.99125202039277e-12
-1.63137638901921e-12
7.77024953823192e-12
-1.38918144735948e-12
6.5422018877716e-12
1.61503066578426e-12
6.80641139356962e-12
-7.62277332655104e-12
1.4586941700015e-11
-1.19669046500602e-11
6.34236014369323e-12
-1.01615940110514e-11
-2.68957108997141e-12
-7.3407255911419e-12
-3.97370555728006e-12
-5.06527710798376e-12
-2.89495412026036e-12
-3.53928667367978e-12
-1.61955661421776e-12
-2.55384149691854e-12
-7.35941941430377e-13
-1.90802762312158e-12
-1.91778293775631e-13
-1.46587994874575e-12
1.26925095468565e-13
-1.14720555130519e-12
3.16132254020622e-13
-9.06457553047099e-13
4.32992267181342e-13
-7.17577655234537e-13
5.09281617536932e-13
-5.6513235227278e-13
5.62169206255884e-13
-4.39504229631239e-13
6.00798463241136e-13
-3.34409340724411e-13
6.30256356760072e-13
-2.45472243730022e-13
6.53412250696495e-13
-1.69530705086546e-13
6.71998518861123e-13
-1.04157118961703e-13
6.87100529457455e-13
-4.74570068635937e-14
6.99438975005963e-13
2.14656347307647e-15
7.09522073179336e-13
4.59784777455191e-14
7.17677387772289e-13
8.52072978216591e-14
7.24175347559022e-13
1.20858105273337e-13
7.29202662401994e-13
1.53888969084194e-13
7.32891671847934e-13
1.85193413696999e-13
7.35326787658794e-13
2.15669855015633e-13
7.36527218463111e-13
2.4618744674202e-13
7.36530722660334e-13
2.77657103746378e-13
7.35305885246016e-13
3.1102123269113e-13
7.3279148611649e-13
3.47312514971993e-13
7.28905706830216e-13
3.87684693990786e-13
7.23444938982108e-13
4.33469166527867e-13
7.16191548746142e-13
4.86212215513519e-13
7.06836097231668e-13
5.47829799153929e-13
6.9486374232687e-13
6.20772565218653e-13
6.79483916116006e-13
7.08264974629768e-13
6.59593214270738e-13
8.14718469950188e-13
6.33416975305069e-13
9.46493855949025e-13
5.97996440748491e-13
1.11325833985087e-12
5.4815622768049e-13
1.330596116969e-12
4.74462157613065e-13
1.62475202101027e-12
3.59498848416969e-13
2.04155591814227e-12
1.71234678674072e-13
2.66170153130715e-12
-1.47717604313742e-13
3.6225902648366e-12
-6.94573854501402e-13
5.12930256634599e-12
-1.58574485592474e-12
7.40638743539835e-12
-2.88982608511675e-12
1.02871739236789e-11
-4.0485858493474e-12
1.22094220443295e-11
-2.83360343239463e-12
7.84836307507848e-12
6.43387529763607e-12
1.4944970966376e-11
-4.43933534017505e-12
1.93469756446427e-11
-9.63213456792711e-12
1.19582237468386e-11
-9.19492349147863e-12
-2.69940766383646e-12
-7.35376459104773e-12
-5.39929948651914e-12
-5.56992328857892e-12
-4.27547760409331e-12
-4.21669116742372e-12
-2.5780913951565e-12
-3.24905987397273e-12
-1.31425490232517e-12
-2.55398859882176e-12
-5.00859155384337e-13
-2.04028609360385e-12
-2.90458848965551e-15
-1.64721073780458e-12
3.05588893161588e-13
-1.33683130720398e-12
5.04338326849002e-13
-1.08545823865684e-12
6.39224972153245e-13
-8.77762496705937e-13
7.35649708014341e-13
-7.03464125981021e-13
8.07725097267981e-13
-5.55400005619013e-13
8.6356337599547e-13
-4.28351604275952e-13
9.07940506089029e-13
-3.18408396391544e-13
9.4384427986924e-13
-2.22504028472933e-13
9.73201317416269e-13
-1.38186144300567e-13
9.97319305704661e-13
-6.33931489834231e-14
1.01711232940989e-12
3.6161216884583e-15
1.0332121660725e-12
6.43954699285735e-14
1.04609708615673e-12
1.20326365694071e-13
1.05611371988109e-12
1.72706096072521e-13
1.06349841236027e-12
2.22758240565555e-13
1.06839782651406e-12
2.71688727375888e-13
1.0708685372678e-12
3.20694226385131e-13
1.07094589085889e-12
3.71017059053552e-13
1.06857073342581e-12
4.2394706932225e-13
1.06362477453074e-12
4.80897301700138e-13
1.05591990541026e-12
5.43426016027522e-13
1.04509861622424e-12
6.13318335128859e-13
1.03073387059242e-12
6.92643657001353e-13
1.01222581236091e-12
7.8390733113148e-13
9.88644178113008e-13
8.90226637171886e-13
9.58587609292199e-13
1.01559552372211e-12
9.2010624139832e-13
1.16529089558659e-12
8.70157007431468e-13
1.34654296511763e-12
8.03870528598924e-13
1.56967574554708e-12
7.13000463711884e-13
1.85011230318168e-12
5.8304942680742e-13
2.21165979317414e-12
3.88229355864955e-13
2.69246630638407e-12
8.22199538232918e-14
3.35385606333656e-12
-4.15361310356965e-13
4.28848313429364e-12
-1.23243661048818e-12
5.61445522235102e-12
-2.50939312638103e-12
7.39330335197134e-12
-4.25574992247419e-12
9.2906471993015e-12
-5.51574083166791e-12
9.85895965995178e-12
-2.95584475507529e-12
4.67171094127013e-12
1.20446667136125e-11
1.98765719436986e-11
-2.57422026263329e-12
2.22270730805432e-11
-5.9653489448211e-12
1.57358567249742e-11
-6.60449430627452e-12
-1.68204037409815e-12
-6.01361043341112e-12
-5.62786683144696e-12
-5.07344990740942e-12
-4.86740645454636e-12
-4.16666309897436e-12
-3.14625542181796e-12
-3.40853882671301e-12
-1.73951023959858e-12
-2.79903559812483e-12
-7.80788626050392e-13
-2.31183790815126e-12
-1.62431700619436e-13
-1.91902716226464e-12
2.39350923048354e-13
-1.59815537728238e-12
5.09430391044026e-13
-1.33248587283308e-12
6.99246341030643e-13
-1.10967647704128e-12
8.38473021079882e-13
-9.20653143923964e-13
9.44426285260583e-13
-7.58655230743617e-13
1.027456955423e-12
-6.18548025096808e-13
1.09393868541688e-12
-4.96342432848102e-13
1.1479598962957e-12
-3.88852786496728e-13
1.19224967889983e-12
-2.93487485321092e-13
1.22868647389631e-12
-2.0805006944729e-13
1.25859366965132e-12
-1.30665850207319e-13
1.28291018407721e-12
-5.965942068648e-14
1.30233239070089e-12
6.47117399791558e-15
1.31736874722009e-12
6.91368099099854e-14
1.32836543772236e-12
1.29670206131633e-13
1.33553637901842e-12
1.89383884398097e-13
1.33897642573822e-12
2.49580001612691e-13
1.33872052633213e-12
3.11606338304838e-13
1.3346819801643e-12
3.76863597505657e-13
1.3266788487436e-12
4.46892418052365e-13
1.31440064490271e-12
5.23369089705433e-13
1.29734518985744e-12
6.08212953357523e-13
1.27485872047844e-12
7.03631532504031e-13
1.24604754420556e-12
8.12272931991023e-13
1.20956014482686e-12
9.37350056699931e-13
1.16343085512753e-12
1.08290167131877e-12
1.10491155658753e-12
1.25410078656987e-12
1.02983759479024e-12
1.45771450032994e-12
9.31782402372159e-13
1.70278498147325e-12
8.0024661613927e-13
2.00160597605116e-12
6.17514669859746e-13
2.37081013978689e-12
3.53480164957492e-13
2.83274393912421e-12
-4.38179006834234e-14
3.41545479162305e-12
-6.60243255044953e-13
4.14596329241204e-12
-1.62200953852452e-12
5.02867824610511e-12
-3.04531240777666e-12
5.96300111621371e-12
-4.83190879407148e-12
6.59993673416973e-12
-5.77564257410332e-12
6.07994404802803e-12
-2.04151224433191e-12
2.71392702888134e-12
1.57840540212486e-11
2.28148096184695e-11
-1.69798810013288e-12
2.41945554541732e-11
-3.32689777856341e-12
1.76902806263896e-11
-4.46352366279193e-12
-2.38116480969559e-13
-4.67476054127477e-12
-5.12619214894114e-12
-4.36245462277583e-12
-4.90290655666599e-12
-3.83814813275709e-12
-3.40293815675547e-12
-3.29472353411522e-12
-2.02065684270992e-12
-2.80148566045776e-12
-1.0146229491099e-12
-2.37712290687067e-12
-3.28904097850892e-13
-2.01896224906867e-12
1.38297010776203e-13
-1.71785979846532e-12
4.65051637814794e-13
-1.46388760057344e-12
7.01871100634389e-13
-1.24821231808354e-12
8.79423916382565e-13
-1.06358708894724e-12
1.01656695482141e-12
-9.04219701013198e-13
1.12504691614293e-12
-7.65502017065751e-13
1.21240372863115e-12
-6.43745397412463e-13
1.28360806140284e-12
-5.35933483136356e-13
1.34206366915037e-12
-4.39571819696942e-13
1.39015004046793e-12
-3.52526056261869e-13
1.4295637542176e-12
-2.72960912488212e-13
1.46152953585139e-12
-1.99230417224771e-13
1.48695106058815e-12
-1.29850453519855e-13
1.50648679751091e-12
-6.34286490640742e-14
1.52059351775591e-12
1.35424754430994e-15
1.52954666143128e-12
6.57933351113802e-14
1.53348323071196e-12
1.31171267710172e-13
1.53244023842531e-12
1.98820212598333e-13
1.5262980335562e-12
2.70124906855807e-13
1.51481314525569e-12
3.46595261646297e-13
1.49756485069178e-12
4.29872771547402e-13
1.47391193561178e-12
5.21827227606233e-13
1.44298813562861e-12
6.24595972898015e-13
1.40362584636927e-12
7.40713598938269e-13
1.35409390248223e-12
8.73192381327346e-13
1.29194927022921e-12
1.02574430612969e-12
1.21376802326807e-12
1.20296885729142e-12
1.11450702537708e-12
1.41060736396325e-12
9.86629421837349e-13
1.65580097338285e-12
8.18250637394116e-13
1.94721255242284e-12
5.9016195181453e-13
2.2944527866847e-12
2.71326845726718e-13
2.70620377454763e-12
-1.89215644808168e-13
3.18459350420147e-12
-8.70566743528144e-13
3.7104533365379e-12
-1.87701095201469e-12
4.21743225901148e-12
-3.27606790351847e-12
4.52530341608677e-12
-4.8528478986762e-12
4.35307508107971e-12
-5.29816704578709e-12
3.3142564547678e-12
-6.80761240131938e-13
1.72846885079961e-12
1.76741268345211e-11
2.47198434385987e-11
-1.13231620838674e-12
2.5547753811549e-11
-1.95562298853787e-12
1.87666802536965e-11
-3.19880324934571e-12
1.23574401914619e-12
-3.73722806438231e-12
-4.37283055919741e-12
-3.75023992272829e-12
-4.68690267432027e-12
-3.46624025448278e-12
-3.49190556643748e-12
-3.08274913533416e-12
-2.21364281821119e-12
-2.69176449854552e-12
-1.21739268823481e-12
-2.3326830182321e-12
-5.00851528798011e-13
-2.01708189349081e-12
9.359466836937e-15
-1.74465475998352e-12
3.7911983379275e-13
-1.51070974098113e-12
6.54432459593767e-13
-1.30952290243824e-12
8.64856345327894e-13
-1.13568771738789e-12
1.02953875706126e-12
-9.84535199687153e-13
1.16092007826342e-12
-8.52139716247635e-13
1.26727578669498e-12
-7.35259166847238e-13
1.35422868341826e-12
-6.31158209589912e-13
1.42569445409835e-12
-5.37540478819e-13
1.48447226070859e-12
-4.52411969683252e-13
1.53257507077273e-12
-3.74047065065349e-13
1.57148253334046e-12
-3.00885372452356e-13
1.60228090086426e-12
-2.31512924365781e-13
1.62576335360476e-12
-1.64595589100989e-13
1.64248485092175e-12
-9.88779305932171e-14
1.65278813522529e-12
-3.31214439424592e-14
1.65684468004709e-12
3.38996103796328e-14
1.65469363714949e-12
1.03454349465132e-13
1.64618850919314e-12
1.7686356565219e-13
1.63102451818662e-12
2.55560421871226e-13
1.60868455406387e-12
3.41097447370507e-13
1.57839974527192e-12
4.3522413912237e-13
1.53912148377754e-12
5.39928729238192e-13
1.48943791165991e-12
6.57535918037834e-13
1.42729803715932e-12
7.90750748780985e-13
1.34987616965356e-12
9.42818462210333e-13
1.25322978342291e-12
1.11761525380239e-12
1.13168903788189e-12
1.31972911984741e-12
9.77030476060108e-13
1.55440393530036e-12
7.76719164048781e-13
1.82711423118546e-12
5.1133682222526e-13
2.1420973242936e-12
1.51092037598698e-13
2.49894933667702e-12
-3.50276343387367e-13
2.88505398653076e-12
-1.05948613591531e-12
3.25967751982938e-12
-2.0521769655755e-12
3.53271499229988e-12
-3.34519261286252e-12
3.51774446689163e-12
-4.62471273526742e-12
3.01563834275173e-12
-4.56647114844982e-12
1.85278708724999e-12
7.27152610238452e-13
1.09069898856294e-12
1.86666907913518e-11
2.59402422945272e-11
-6.85961936840655e-13
2.6394029573236e-11
-1.38586141549074e-12
1.96354803489376e-11
-2.54370169842151e-12
2.53929295282808e-12
-3.13480596361299e-12
-3.64825674874219e-12
-3.27507195587697e-12
-4.42204182908541e-12
-3.12552547787572e-12
-3.5228472250518e-12
-2.8517537023798e-12
-2.3721532049421e-12
-2.54178612637606e-12
-1.41365717227513e-12
-2.24008335911949e-12
-6.89457371600179e-13
-1.96475637392107e-12
-1.5302669506252e-13
-1.7208466774218e-12
2.48188787472156e-13
-1.50746554882938e-12
5.54172076985873e-13
-1.3214565972851e-12
7.92161336589619e-13
-1.15908530021864e-12
9.807176438184e-13
-1.01677698553679e-12
1.13241047680242e-12
-8.91314149752891e-13
1.25587226404306e-12
-7.79925245239959e-13
1.35714731699962e-12
-6.8019718708225e-13
1.44051717762484e-12
-5.90053565248746e-13
1.50909987613953e-12
-5.07665915719414e-13
1.56517049998189e-12
-4.31427319873981e-13
1.61041704564128e-12
-3.59872856948564e-13
1.64608467369123e-12
-2.91670971309674e-13
1.67308849882086e-12
-2.25558649442316e-13
1.69206934371422e-12
-1.60344260305496e-13
1.70343073655719e-12
-9.48502572697988e-14
1.70737427429196e-12
-2.79145183906127e-14
1.70394519114311e-12
4.16665684525922e-14
1.6929705323366e-12
1.15142153035102e-13
1.67409168657526e-12
1.93862605252088e-13
1.64670491865254e-12
2.7927973530152e-13
1.60993163192783e-12
3.73012241446175e-13
1.5625715526553e-12
4.76883528840389e-13
1.50300161575424e-12
5.92979128609687e-13
1.42892388909205e-12
7.23674464107785e-13
1.33721990740394e-12
8.71729477347996e-13
1.22358022796513e-12
1.04028609314078e-12
1.08195319311412e-12
1.23282544700052e-12
9.03792671351866e-13
1.45288357071174e-12
6.76505996212602e-13
1.70332533194872e-12
3.81352331841502e-13
1.98453824423811e-12
-8.98729888811618e-15
2.29066739714137e-12
-5.34498572568031e-13
2.60238578369858e-12
-1.24831130940924e-12
2.87363193848993e-12
-2.19893314453865e-12
3.01778447445861e-12
-3.36159010733007e-12
2.87913779771405e-12
-4.351044626264e-12
2.32450248258427e-12
-3.86320689447287e-12
1.23825472229573e-12
1.97471267606242e-12
6.12602727817115e-13
1.94427140053394e-11
2.66313128824773e-11
-3.81116963548651e-13
2.68732242181582e-11
-1.16619864576433e-12
2.05079166646227e-11
-2.170323508954e-12
3.61110985526818e-12
-2.71380248778608e-12
-3.04503553806054e-12
-2.89273808014012e-12
-4.18892645803949e-12
-2.82098854623568e-12
-3.54429193033977e-12
-2.62470043534614e-12
-2.52025215048596e-12
-2.37895906713102e-12
-1.61205942816683e-12
-2.12619998295619e-12
-8.9505685223402e-13
-1.88691238304822e-12
-3.45041545335845e-13
-1.66928701997908e-12
7.80478696271384e-14
-1.47517772250468e-12
4.0780194487965e-13
-1.30350123117483e-12
6.68489458482028e-13
-1.15198816682855e-12
8.77492048756236e-13
-1.01806333580418e-12
1.04705287341209e-12
-8.99195100121905e-13
1.18585531026099e-12
-7.93066865174706e-13
1.30013796532241e-12
-6.97592377177713e-13
1.39442173608567e-12
-6.10918104654542e-13
1.4720417165022e-12
-5.31381086358797e-13
1.53547783707354e-12
-4.57495176647957e-13
1.58658130610998e-12
-3.87895864214663e-13
1.62673606861427e-12
-3.21329286463552e-13
1.65695599456812e-12
-2.56600411121241e-13
1.67795759365895e-12
-1.92578751942547e-13
1.69019835408686e-12
-1.28150636343401e-13
1.69391298995623e-12
-6.2208978930378e-14
1.68914333164835e-12
6.38691329470793e-15
1.67569840989901e-12
7.88203230142606e-14
1.65316751685577e-12
1.56354840680198e-13
1.62088191152056e-12
2.40346340108586e-13
1.57786273735937e-12
3.32282403663922e-13
1.52279226954824e-12
4.33820180104526e-13
1.45387135233417e-12
5.46809030726167e-13
1.36862399397034e-12
6.73302380679132e-13
1.26372352284273e-12
8.15588569353513e-13
1.13464048159914e-12
9.76112968853034e-13
9.75161324457981e-13
1.15734954883765e-12
7.76720750980498e-13
1.36136211515281e-12
5.27122508201095e-13
1.58893166704089e-12
2.0890245162929e-13
1.83770841166181e-12
-2.02150773038071e-13
2.0987151722992e-12
-7.39388056842156e-13
2.35031585412785e-12
-1.44322021899994e-12
2.54867649377604e-12
-2.33968473127858e-12
2.62001762827031e-12
-3.37324747171368e-12
2.44698078145967e-12
-4.11312525797882e-12
1.94066044417741e-12
-3.28157372247938e-12
1.00498062101697e-12
2.99583207695884e-12
2.9925489862382e-13
2.02256315570076e-11
2.69651657165114e-11
-2.19980028570465e-13
2.71289624169169e-11
-1.0525409690315e-12
2.13496043254918e-11
-1.8972445785704e-12
4.45063645835039e-12
-2.37722330815424e-12
-2.57306968212578e-12
-2.56497952185073e-12
-4.01113491119735e-12
-2.54357481308282e-12
-3.5773278275156e-12
-2.40525069027434e-12
-2.67108140012761e-12
-2.21172454934464e-12
-1.81825791030535e-12
-2.00104281328762e-12
-1.11820301681533e-12
-1.79401453791695e-12
-5.64186880378868e-13
-1.6006126579664e-12
-1.27110176219177e-13
-1.42463598633544e-12
2.20421061842473e-13
-1.26664162546701e-12
4.99421203940521e-13
-1.12559840435887e-12
7.25701248133514e-13
-9.99820730440775e-13
9.10839299280488e-13
-8.8740885427981e-13
1.0633161881686e-12
-7.86485767854506e-13
1.18937591960058e-12
-6.95274692855968e-13
1.29365195328087e-12
-6.12148128758249e-13
1.3796122940875e-12
-5.35606491437682e-13
1.44987956135066e-12
-4.64288686864525e-13
1.50643092883847e-12
-3.96926427185382e-13
1.55075864471852e-12
-3.32345899216405e-13
1.58396002493256e-12
-2.69419781545198e-13
1.60681446394793e-12
-2.07080328814481e-13
1.6198277832664e-12
-1.44271092348371e-13
1.6232628378986e-12
-7.99395401711677e-14
1.61715472878543e-12
-1.3011086995941e-14
1.60130619648717e-12
5.76311138223196e-14
1.57525494402587e-12
1.33169754208966e-13
1.53828120459086e-12
2.14861300342664e-13
1.48932419572014e-12
3.04067818741463e-13
1.42697502460085e-12
4.02278661566735e-13
1.34930009801115e-12
5.11116330090832e-13
1.25370431855674e-12
6.32319639324348e-13
1.13673923658359e-12
7.67729010004432e-13
9.93784956439194e-13
9.19163167808751e-13
8.18642164019157e-13
1.08820388112911e-12
6.02984064812067e-13
1.27568052752073e-12
3.35342610709361e-13
1.48074509833045e-12
-8.88343382668863e-17
1.69914577831332e-12
-4.24160342439469e-13
1.92022685952224e-12
-9.63840978017219e-13
2.12222036939962e-12
-1.64842339324781e-12
2.26609959424181e-12
-2.4865269564828e-12
2.29146896768235e-12
-3.40067118891159e-12
2.11379201108709e-12
-3.93436793749215e-12
1.67089429109202e-12
-2.83048214434627e-12
8.9278004053179e-13
3.788740807529e-12
1.38981405917009e-13
2.09889154083588e-11
2.70976121680604e-11
-1.59237632683523e-13
2.72703726715221e-11
-9.57818444156993e-13
2.20935063293716e-11
-1.66219203948743e-12
5.0927952970041e-12
-2.08647236536719e-12
-2.20930804422334e-12
-2.27402104516568e-12
-3.88300681553494e-12
-2.2878170103208e-12
-3.62273882799759e-12
-2.19432456254374e-12
-2.82360888406617e-12
-2.04386160110599e-12
-2.02736891623924e-12
-1.86961907660717e-12
-1.35058495905273e-12
-1.69165376485373e-12
-7.99767513868314e-13
-1.52080051937522e-12
-3.55104341036587e-13
-1.36215845555056e-12
5.06814969155194e-15
-1.21753232996804e-12
2.98470665558502e-13
-1.08690273372303e-12
5.39115669300838e-13
-9.69355847859137e-13
7.37680632465337e-13
-8.63554790771958e-13
9.02239706834932e-13
-7.68033994943003e-13
1.03889308744542e-12
-6.81312642581374e-13
1.15227205758996e-12
-6.01986275666578e-13
1.24590622710569e-12
-5.28715945947081e-13
1.32249777104743e-12
-4.60266242831889e-13
1.38411506360955e-12
-3.95466337952936e-13
1.43233011390127e-12
-3.33227911714987e-13
1.46831183805128e-12
-2.72491907230943e-13
1.49288465367255e-12
-2.12253094278628e-13
1.50659805042287e-12
-1.51514844335992e-13
1.50973828134641e-12
-8.92873638248975e-14
1.50233809896579e-12
-2.4553831847622e-14
1.48418804731356e-12
4.37267154664503e-14
1.45479278401162e-12
1.16660062341779e-13
1.41338215245524e-12
1.95396152772348e-13
1.35884351311372e-12
2.81177504695155e-13
1.28968924290326e-12
3.75322406800358e-13
1.20390273555855e-12
4.79235116385377e-13
1.09881679949821e-12
5.94357299353747e-13
9.70938510333896e-13
7.22116669375151e-13
8.15672431430496e-13
8.63771655767819e-13
6.26975783564365e-13
1.02013776845885e-12
3.96961743390863e-13
1.19104713389075e-12
1.15112107432467e-13
1.37443693254316e-12
-2.32516757191006e-13
1.56480197397105e-12
-6.63392770139828e-13
1.75075939068079e-12
-1.19865574844406e-12
1.91151813627471e-12
-1.85822612519463e-12
2.01333580357202e-12
-2.6377020040997e-12
2.00719280771471e-12
-3.44394716715756e-12
1.83324954333752e-12
-3.80853732518391e-12
1.44487370724719e-12
-2.48628096870763e-12
8.04294377525673e-13
4.38892700117139e-12
8.12160167020933e-14
2.16681088355167e-11
2.71419362986165e-11
-1.48985851772373e-13
2.73569928946041e-11
-8.64283119171001e-13
2.27032684851676e-11
-1.45309770001747e-12
5.57489510089019e-12
-1.83023262722303e-12
-1.93308441240864e-12
-2.01349328824385e-12
-3.79690897117447e-12
-2.05197418767033e-12
-3.67961358719979e-12
-1.9932718046665e-12
-2.97662347349674e-12
-1.87831577807759e-12
-2.23580169387061e-12
-1.73560029335136e-12
-1.58603395590121e-12
-1.58381516242568e-12
-1.04362794008255e-12
-1.43399099677046e-12
-5.96441840761873e-13
-1.29200405082181e-12
-2.27939442771301e-13
-1.16055247045059e-12
7.64327995159126e-14
-1.04041215944725e-12
3.28795407560674e-13
-9.31309743109226e-13
5.38774609586105e-13
-8.32403109425535e-13
7.13893815462724e-13
-7.42599427285814e-13
8.59989389371405e-13
-6.60697318277762e-13
9.81598073028401e-13
-5.8550045994081e-13
1.08224023310813e-12
-5.15830723079831e-13
1.1646506432039e-12
-4.50581703948213e-13
1.23095618257404e-12
-3.88683413561085e-13
1.28278120420982e-12
-3.29128630585698e-13
1.32134572135423e-12
-2.70933840555513e-13
1.34751335889593e-12
-2.13161996840875e-13
1.36186983977375e-12
-1.54874814883852e-13
1.36471542893229e-12
-9.51503584032439e-14
1.35608923719078e-12
-3.30321263496505e-14
1.3357623552491e-12
3.24423185259273e-14
1.30322441945742e-12
1.02297651692757e-13
1.25765759921152e-12
1.77578265185398e-13
1.197921560464e-12
2.59402883284654e-13
1.12246791264308e-12
3.48927544436514e-13
1.02923610114834e-12
4.47347161310082e-13
9.15533085850856e-13
5.55824234978203e-13
7.77890792358304e-13
6.75413299588365e-13
6.11830332261738e-13
8.06887364706027e-13
4.11575875759816e-13
9.50433586929458e-13
1.69818167060877e-13
1.10510640749391e-12
-1.22867852067934e-13
1.26798526284323e-12
-4.78493963371792e-13
1.43284635431211e-12
-9.11299943219026e-13
1.58824328659996e-12
-1.43727349944208e-12
1.71494918319907e-12
-2.06862799212967e-12
1.78426420789874e-12
-2.79148971266558e-12
1.75644901599161e-12
-3.50148917941621e-12
1.58948287268949e-12
-3.72724166674936e-12
1.24639564781296e-12
-2.2278740628282e-12
7.17241903467153e-13
4.83381472835794e-12
7.37443228356038e-14
2.22256153116385e-11
2.71543870690769e-11
-1.55628075261013e-13
2.74190914820644e-11
-7.73558940226117e-13
2.31826537147317e-11
-1.2691210011521e-12
5.93637268228547e-12
-1.60454187468677e-12
-1.7230601769977e-12
-1.78038849674083e-12
-3.74090641780129e-12
-1.83531837372806e-12
-3.74161156096684e-12
-1.80325671337632e-12
-3.1239634018407e-12
-1.71734158132543e-12
-2.4358562236184e-12
-1.60172863691729e-12
-1.81489137690862e-12
-1.47340022039674e-12
-1.2844563564702e-12
-1.34309239567446e-12
-8.38627629027941e-13
-1.21704583116443e-12
-4.65322565606072e-13
-1.09853812241805e-12
-1.5293554852774e-13
-9.88937834057641e-13
1.08777756992496e-13
-8.88485958822445e-13
3.28314661625288e-13
-7.96758696407756e-13
5.12553517398263e-13
-7.12991849787557e-13
6.66978068690872e-13
-6.36239496238875e-13
7.95957590279678e-13
-5.65503757865109e-13
9.02946177180929e-13
-4.99763145678892e-13
9.90669822256278e-13
-4.38033682919902e-13
1.06127969732658e-12
-3.79349292380568e-13
1.11643294499248e-12
-3.22787403518333e-13
1.15738201013985e-12
-2.67444747592158e-13
1.18502510550834e-12
-2.1244961563994e-13
1.19996885763808e-12
-1.56931347804512e-13
1.20252931330611e-12
-1.00034021430831e-13
1.19275136114134e-12
-4.08712105063175e-14
1.17038968556114e-12
2.14463037383137e-14
1.13492292581803e-12
8.78523669419827e-14
1.08550222448218e-12
1.59293819808397e-13
1.02096670257927e-12
2.36758876247059e-13
9.39740353573855e-13
3.21253126539747e-13
8.39738322730121e-13
4.13770087387231e-13
7.18292077193667e-13
5.15219148434093e-13
5.7201007354594e-13
6.26330874251474e-13
3.96600290519938e-13
7.47464857526985e-13
1.86641524388142e-13
8.78309857276091e-13
-6.45159270326634e-14
1.01735392780641e-12
-3.6514022820811e-13
1.16112399144281e-12
-7.25331806823075e-13
1.30310066573491e-12
-1.15636978338805e-12
1.43223185874343e-12
-1.66979590159974e-12
1.53117102066681e-12
-2.27162688982005e-12
1.57579298104062e-12
-2.94126267885372e-12
1.53397460935099e-12
-3.56629605783517e-12
1.37637808577021e-12
-3.67788917184967e-12
1.07290287707177e-12
-2.03423003686675e-12
6.32124779096605e-13
5.16269499561286e-12
8.2427755073899e-14
2.26623869842355e-11
2.71614106212322e-11
-1.6257480479187e-13
2.74680300254533e-11
-6.88546983588803e-13
2.35505842351523e-11
-1.10876620564072e-12
6.20712137718371e-12
-1.40605975686511e-12
-1.56449864420829e-12
-1.57196157517588e-12
-3.70694082331841e-12
-1.63683197547674e-12
-3.80500744263905e-12
-1.62474412841971e-12
-3.26226028337347e-12
-1.56232873390689e-12
-2.62314431999364e-12
-1.46983874979875e-12
-2.03126575920788e-12
-1.36237285824826e-12
-1.51500858918459e-12
-1.25004436197511e-12
-1.0733794398978e-12
-1.13913611274582e-12
-6.9807569167086e-13
-1.0332455145569e-12
-3.80159991362585e-13
-9.3414909659449e-13
-1.1117590872524e-13
-8.42482769642164e-13
1.1623210256472e-13
-7.58160944869648e-13
3.08240581017562e-13
-6.80703438912659e-13
4.69927232807191e-13
-6.09393025360802e-13
6.05438581467417e-13
-5.43414801345154e-13
7.18117225097575e-13
-4.81895743736661e-13
8.10644550118975e-13
-4.23972087739918e-13
8.85168745958023e-13
-3.68781492974505e-13
9.43363233181663e-13
-3.15485732984749e-13
9.86492691831147e-13
-2.63262270710118e-13
1.01548564137925e-12
-2.11310748905562e-13
1.03096108251975e-12
-1.58830888256234e-13
1.03324985677742e-12
-1.05031348098539e-13
1.02239599736253e-12
-4.91026207025861e-14
9.98150439995039e-13
9.77229821088383e-15
9.59975864576989e-13
7.2434159580825e-14
9.07013394782403e-13
1.39730246487294e-13
8.38088238897077e-13
2.12527135143643e-13
7.51618229363052e-13
2.9168406093692e-13
6.45519763099003e-13
3.78011799988465e-13
5.17184370488596e-13
4.72192732406609e-13
3.63341547055088e-13
5.74681924379362e-13
1.79933962057158e-13
6.85498129988911e-13
-3.80404673697342e-14
8.03957782814025e-13
-2.96541076927928e-13
9.28166015048667e-13
-6.02670697664023e-13
1.05435423434006e-12
-9.64709395347682e-13
1.17602767930075e-12
-1.39130139086113e-12
1.2828399215801e-12
-1.89023291088362e-12
1.35945362192187e-12
-2.46264466567474e-12
1.38578696951693e-12
-3.08328657422039e-12
1.3360305404723e-12
-3.63412461515974e-12
1.18980026637491e-12
-3.65189973440461e-12
9.22536385703705e-13
-1.89095706646128e-12
5.5212268917555e-13
5.4043717952247e-12
9.11518010445921e-14
2.29941635575551e-11
2.71684870030288e-11
-1.64188819149848e-13
2.75099119599571e-11
-6.10382803359969e-13
2.38330148846016e-11
-9.68866530902736e-13
6.41320997059247e-12
-1.23101661448798e-12
-1.44307420617496e-12
-1.38519465285581e-12
-3.6861612141072e-12
-1.45502326095317e-12
-3.86455528874436e-12
-1.45753551632016e-12
-3.38687269536773e-12
-1.4139243904632e-12
-2.79245614904894e-12
-1.34101179869417e-12
-2.22885302773819e-12
-1.25197543937543e-12
-1.72789789531164e-12
-1.15609932353153e-12
-1.2924207718411e-12
-1.05945617622019e-12
-9.17276366376035e-13
-9.65760897263802e-13
-5.95869658313777e-13
-8.77036751166481e-13
-3.21404775328508e-13
-7.94202032834885e-13
-8.7632822192295e-14
-7.17439656602371e-13
1.10905765550608e-13
-6.46505759531205e-13
2.7885090497972e-13
-5.8087919230259e-13
4.20085374129501e-13
-5.19908754241428e-13
5.37808480263076e-13
-4.62863504835265e-13
6.34635396529397e-13
-4.08995450374698e-13
7.12683969921961e-13
-3.5754071632645e-13
7.73626665832327e-13
-3.07751541589742e-13
8.1873250273254e-13
-2.58880989592957e-13
8.48945534669138e-13
-2.10204594195224e-13
8.64896652793432e-13
-1.6099142078448e-13
8.66925009508322e-13
-1.10522110748574e-13
8.55076561349903e-13
-5.8060857690604e-14
8.29100490281046e-13
-2.86967687633797e-15
7.88447780747926e-13
5.58051499294305e-14
7.32258763233026e-13
1.18710207509158e-13
6.5935738316079e-13
1.86599079804764e-13
5.6816841801442e-13
2.60188106052994e-13
4.5663843686511e-13
3.40128131620386e-13
3.22237147104023e-13
4.26902383227067e-13
1.61853685223251e-13
5.20736142052262e-13
-2.83035832451011e-14
6.21389156492695e-13
-2.5278906559669e-13
7.27909317892342e-13
-5.16860917221436e-13
8.38174889741022e-13
-8.26498486571758e-13
9.483348492856e-13
-1.18830503334843e-12
1.05214777389501e-12
-1.60862671002765e-12
1.14016746077913e-12
-2.09214271692127e-12
1.19906898659883e-12
-2.63623767730931e-12
1.21228779402505e-12
-3.21254470842532e-12
1.15926199595225e-12