/*--------------------------------*- C++ -*----------------------------------*\
  =========                 |
  \\      /  F ield         | OpenFOAM: The Open Source CFD Toolbox
   \\    /   O peration     | Website:  https://openfoam.org
    \\  /    A nd           | Version:  10
     \\/     M anipulation  |
\*---------------------------------------------------------------------------*/
FoamFile
{
    format      ascii;
    class       volScalarField;
    location    "4";
    object      rho;
}
// * * * * * * * * * * * * * * * * * * * * * * * * * * * * * * * * * * * * * //

dimensions      [1 -3 0 0 0 0 0];

internalField   nonuniform List<scalar> 
2500
(
1.14304052886099
1.14311420321793
1.14319098399091
1.14323118777101
1.14324939312553
1.14325724680422
1.14326050268155
1.14326179079271
1.14326227523858
1.14326244584324
1.14326250816971
1.14326253059981
1.14326253907875
1.14326254488663
1.14326254942809
1.14326255407164
1.143262556525
1.14326255946536
1.14326256277506
1.14326256512869
1.14326256723053
1.14326256916747
1.143262570814
1.14326257174824
1.14326257272461
1.14326257370836
1.14326257407935
1.1432625743589
1.1432625744885
1.14326257420875
1.14326257373424
1.1432625728752
1.1432625714985
1.14326256972076
1.14326256792089
1.14326256583349
1.14326256303561
1.14326255918606
1.14326254890181
1.14326252459455
1.14326245706837
1.14326226760541
1.14326175277298
1.14326041869387
1.14325711542653
1.14324928786068
1.14323121492167
1.14319098310002
1.14311321864607
1.14304105662044
1.14847075375406
1.14872790485959
1.14894447141113
1.1490622391835
1.14911975720442
1.14914655582739
1.14915848735285
1.14916350536894
1.14916548476181
1.14916621515218
1.1491664705243
1.14916655504117
1.14916658167916
1.14916659100864
1.14916659511436
1.149166597854
1.14916659931018
1.14916660086804
1.14916660262328
1.14916660401394
1.14916660539754
1.14916660686448
1.14916660817996
1.14916660888968
1.14916660947032
1.14916661014742
1.14916661040263
1.14916661062181
1.14916661098101
1.14916661081926
1.14916661062878
1.14916661050404
1.14916660922926
1.14916660749647
1.14916660635617
1.14916660481868
1.14916660096947
1.14916659041031
1.14916655743899
1.14916645889485
1.1491661719548
1.14916537642018
1.14916329246291
1.14915814717907
1.14914615057615
1.14911952385722
1.14906243705414
1.14894439241745
1.14872428921812
1.14847023269822
1.15339205154761
1.15374165408639
1.15400951816521
1.15415343021022
1.15422351592545
1.15425615023168
1.15427070861722
1.15427685831567
1.15427929807551
1.15428020464939
1.15428052186391
1.15428062630142
1.15428065842693
1.15428066827604
1.15428067151448
1.15428067290488
1.15428067347682
1.15428067403645
1.15428067473295
1.15428067534839
1.15428067608022
1.15428067700928
1.1542806779238
1.15428067841834
1.15428067871864
1.1542806791293
1.1542806792517
1.15428067938057
1.15428067978392
1.15428067978243
1.15428067978415
1.15428067996562
1.15428067891047
1.15428067747182
1.154280677
1.15428067614587
1.1542806723584
1.15428066018709
1.15428062119805
1.15428050160403
1.15428015117467
1.15427917889669
1.1542766353532
1.15427036556397
1.1542557613308
1.15422331416549
1.15415356979755
1.15400878494627
1.15373526656974
1.15338306669187
1.15707296655934
1.15739797462837
1.15761884801663
1.15773337401577
1.15778692972453
1.15781093906348
1.15782133749362
1.15782564112966
1.15782732611103
1.15782794725364
1.15782816342081
1.15782823413852
1.15782825550186
1.15782826171148
1.15782826349252
1.15782826399019
1.15782826401679
1.15782826405394
1.15782826418484
1.15782826436356
1.15782826465668
1.15782826514806
1.15782826570776
1.15782826603315
1.15782826616413
1.15782826636492
1.15782826641287
1.15782826645454
1.15782826667511
1.15782826669249
1.15782826673795
1.15782826702142
1.15782826640983
1.1578282655641
1.15782826542251
1.15782826510232
1.15782826306462
1.157828255556
1.15782823061486
1.15782815254058
1.15782792028208
1.1578272663333
1.1578255282223
1.15782116085112
1.15781073312241
1.15778679843201
1.15773326362513
1.15761743583086
1.15739060799332
1.15705714495403
1.15943074858027
1.15966895122457
1.15981471019239
1.15988766700443
1.15992050600556
1.15993471285176
1.15994070128677
1.15994313773872
1.15994408315245
1.1599444305265
1.1599445514501
1.15994459098466
1.15994460279745
1.1599446061167
1.15994460682544
1.15994460683382
1.15994460675834
1.15994460666766
1.15994460663656
1.15994460664966
1.15994460671007
1.15994460691789
1.15994460721966
1.15994460741068
1.15994460743774
1.15994460747661
1.15994460747258
1.1599446074823
1.15994460757537
1.15994460758693
1.15994460764431
1.1599446079029
1.15994460762089
1.15994460727127
1.1599446072986
1.15994460717843
1.1599446062361
1.15994460242857
1.15994458925393
1.15994454730254
1.15994442125573
1.15994406292619
1.15994309988655
1.15994064340384
1.15993465061814
1.15992047325692
1.15988754015188
1.15981340092786
1.15966267391986
1.15941406635342
1.16075895793897
1.1609058515721
1.16098773898926
1.16102740877387
1.1610446781451
1.16105191705835
1.16105489576435
1.16105609054859
1.16105655144145
1.16105672077179
1.16105677992882
1.16105679932185
1.1610568050765
1.16105680659567
1.16105680680366
1.16105680673093
1.16105680662741
1.16105680653086
1.16105680648235
1.161056806477
1.16105680647391
1.1610568065247
1.16105680667134
1.16105680676051
1.16105680674124
1.16105680672633
1.16105680671314
1.16105680671098
1.16105680674325
1.1610568067554
1.1610568068035
1.16105680697347
1.161056806863
1.16105680674043
1.16105680677957
1.16105680675105
1.16105680639706
1.16105680470856
1.16105679857346
1.16105677874982
1.16105671882094
1.16105654756038
1.16105608411396
1.16105488879158
1.16105191960888
1.16104470366892
1.16102736173606
1.16098689455451
1.1609015644977
1.16074573413644
1.16143047694773
1.16150966061316
1.16155028449708
1.16156938212671
1.16157746080384
1.16158075535831
1.16158208234714
1.16158260820352
1.16158281028507
1.16158288467331
1.1615829108019
1.16158291940554
1.16158292194148
1.16158292255044
1.16158292258911
1.16158292253891
1.16158292246641
1.16158292240153
1.16158292236092
1.16158292235303
1.16158292233893
1.16158292234376
1.16158292240588
1.16158292243779
1.16158292241621
1.16158292239937
1.16158292239032
1.16158292238594
1.16158292239632
1.16158292240466
1.1615829224337
1.16158292252677
1.16158292249125
1.16158292245738
1.16158292249331
1.16158292247983
1.16158292235874
1.16158292169673
1.16158291909657
1.16158291057696
1.16158288474216
1.1615828108011
1.16158261006399
1.16158208835535
1.16158077303542
1.16157750002422
1.1615693939834
1.16154986023509
1.16150719059427
1.16142185379097
1.16174005763349
1.16177832616432
1.16179656672534
1.16180490516809
1.1618083467054
1.16180971721535
1.16181025882618
1.16181047119308
1.16181055260079
1.16181058266199
1.16181059328587
1.16181059680168
1.1618105978271
1.16181059805233
1.16181059805316
1.16181059802211
1.16181059798216
1.16181059794681
1.16181059792253
1.16181059791384
1.16181059790579
1.16181059790502
1.16181059792555
1.16181059793326
1.16181059791997
1.16181059791095
1.16181059790673
1.16181059790383
1.16181059790781
1.16181059791341
1.1618105979278
1.16181059797208
1.16181059796407
1.16181059795887
1.16181059797786
1.16181059797647
1.16181059794755
1.16181059770323
1.16181059667803
1.16181059328017
1.16181058296877
1.16181055350187
1.16181047349202
1.16181026458441
1.16180973154661
1.16180837762623
1.16180493461075
1.16179639332075
1.16177708388397
1.16173520335666
1.16187184300046
1.16188872647518
1.16189627190042
1.16189963096658
1.16190098807473
1.16190151753946
1.16190172325401
1.16190180315246
1.16190183372705
1.16190184505925
1.16190184908901
1.16190185042928
1.16190185081615
1.16190185089391
1.16190185088879
1.16190185087267
1.16190185085372
1.16190185083713
1.16190185082521
1.16190185082003
1.16190185081671
1.16190185081685
1.16190185082126
1.16190185082031
1.16190185081532
1.16190185081187
1.16190185081053
1.16190185080951
1.1619018508115
1.16190185081493
1.16190185082164
1.16190185084086
1.16190185084084
1.1619018508425
1.16190185085016
1.16190185085057
1.1619018508463
1.16190185076314
1.16190185038494
1.16190184911052
1.1619018452466
1.16190183424775
1.16190180445361
1.1619017265016
1.16190152573251
1.16190100668862
1.16189965573366
1.1618962142292
1.16188816795881
1.16186941192637
1.16192416460602
1.16193105682709
1.16193397058912
1.16193523515435
1.16193573654073
1.16193592872497
1.16193600227159
1.16193603058947
1.16193604141065
1.16193604543682
1.16193604687689
1.16193604735797
1.16193604749562
1.16193604752103
1.16193604751737
1.16193604751014
1.1619360475022
1.16193604749535
1.16193604749033
1.16193604748776
1.16193604748667
1.16193604748714
1.16193604748778
1.16193604748669
1.16193604748512
1.16193604748428
1.16193604748427
1.16193604748438
1.16193604748567
1.16193604748772
1.16193604749093
1.16193604749859
1.16193604750025
1.16193604750219
1.16193604750557
1.16193604750708
1.16193604750767
1.16193604748138
1.16193604734906
1.16193604689537
1.16193604552266
1.16193604163693
1.16193603115641
1.16193600373999
1.16193593263303
1.16193574602577
1.16193525030902
1.16193395606192
1.16193082849648
1.16192305894348
1.16194369192857
1.16194632265777
1.16194738366892
1.16194783297799
1.16194800814781
1.1619480742757
1.16194809924326
1.16194810877952
1.16194811241879
1.16194811377775
1.1619481142664
1.1619481144303
1.16194811447673
1.16194811448473
1.16194811448321
1.16194811448044
1.16194811447755
1.16194811447514
1.16194811447341
1.16194811447256
1.16194811447223
1.1619481144725
1.161948114473
1.16194811447299
1.16194811447289
1.1619481144731
1.16194811447363
1.16194811447422
1.16194811447525
1.16194811447659
1.16194811447832
1.16194811448149
1.16194811448296
1.16194811448445
1.16194811448637
1.16194811448781
1.16194811448899
1.16194811448121
1.16194811443712
1.16194811428301
1.16194811381751
1.16194811250815
1.16194810899651
1.16194809982816
1.16194807593439
1.1619480124417
1.16194784072018
1.16194738192546
1.16194623670856
1.16194322838562
1.16195058227446
1.16195152900854
1.16195189617161
1.16195204802106
1.16195210631983
1.16195212804028
1.16195213614411
1.16195213921626
1.16195214038701
1.16195214082562
1.1619521409841
1.1619521410375
1.1619521410526
1.16195214105516
1.16195214105473
1.16195214105393
1.16195214105315
1.16195214105258
1.16195214105227
1.16195214105229
1.16195214105251
1.16195214105296
1.16195214105354
1.16195214105399
1.16195214105447
1.16195214105507
1.16195214105579
1.16195214105656
1.16195214105748
1.16195214105851
1.16195214105967
1.16195214106126
1.1619521410624
1.16195214106354
1.16195214106482
1.16195214106596
1.16195214106699
1.16195214106508
1.16195214105123
1.16195214100123
1.16195214084993
1.16195214042679
1.16195213929898
1.16195213636405
1.16195212869304
1.16195210810063
1.16195205152041
1.16195189701981
1.16195149894442
1.16195040109015
1.16195288608114
1.16195320949161
1.16195333097293
1.1619533800915
1.16195339868374
1.16195340553216
1.16195340806078
1.16195340901274
1.16195340937496
1.16195340951107
1.1619534095605
1.16195340957731
1.16195340958216
1.16195340958311
1.16195340958318
1.16195340958317
1.16195340958321
1.16195340958335
1.16195340958361
1.16195340958401
1.1619534095845
1.16195340958509
1.16195340958575
1.1619534095864
1.16195340958709
1.16195340958783
1.16195340958863
1.16195340958946
1.16195340959033
1.16195340959124
1.1619534095922
1.16195340959328
1.16195340959424
1.16195340959519
1.16195340959617
1.16195340959711
1.16195340959798
1.1619534095979
1.16195340959402
1.16195340957869
1.16195340953158
1.16195340940005
1.16195340905134
1.16195340814739
1.16195340578151
1.16195339937885
1.1619533815402
1.16195333180668
1.16195319965861
1.16195281947039
1.1619536109536
1.16195371641282
1.16195375502775
1.16195377031095
1.16195377601984
1.1619537781019
1.1619537788637
1.16195377914867
1.16195377925693
1.16195377929774
1.1619537793127
1.1619537793179
1.16195377931955
1.16195377932005
1.16195377932033
1.16195377932061
1.16195377932096
1.16195377932136
1.16195377932184
1.16195377932239
1.161953779323
1.16195377932367
1.16195377932438
1.16195377932511
1.16195377932588
1.16195377932667
1.1619537793275
1.16195377932834
1.16195377932921
1.16195377933009
1.16195377933098
1.16195377933189
1.16195377933278
1.16195377933365
1.16195377933451
1.16195377933536
1.16195377933615
1.16195377933663
1.16195377933593
1.16195377933171
1.16195377931784
1.1619537792786
1.16195377917463
1.16195377890586
1.16195377820201
1.16195377628492
1.1619537708771
1.16195375549744
1.16195371339864
1.16195358776117
1.16195381729145
1.16195385027186
1.16195386210947
1.16195386670223
1.16195386839659
1.1619538690091
1.16195386923144
1.16195386931412
1.16195386934549
1.1619538693574
1.16195386936186
1.16195386936354
1.16195386936422
1.16195386936461
1.16195386936497
1.16195386936537
1.16195386936582
1.16195386936633
1.16195386936689
1.1619538693675
1.16195386936816
1.16195386936886
1.1619538693696
1.16195386937037
1.16195386937117
1.16195386937199
1.16195386937283
1.16195386937369
1.16195386937455
1.16195386937542
1.1619538693763
1.16195386937717
1.16195386937803
1.16195386937887
1.1619538693797
1.1619538693805
1.16195386938127
1.16195386938193
1.16195386938221
1.16195386938144
1.16195386937781
1.16195386936678
1.16195386933702
1.16195386925986
1.16195386905739
1.16195386850277
1.16195386692032
1.16195386233278
1.16195384941191
1.16195380960615
1.16195386039427
1.16195387032525
1.16195387383594
1.16195387517328
1.16195387566086
1.16195387583568
1.16195387589868
1.16195387592199
1.16195387593084
1.16195387593428
1.16195387593566
1.16195387593631
1.16195387593671
1.16195387593708
1.16195387593747
1.16195387593792
1.16195387593842
1.16195387593896
1.16195387593956
1.1619538759402
1.16195387594088
1.16195387594161
1.16195387594237
1.16195387594315
1.16195387594397
1.16195387594481
1.16195387594566
1.16195387594652
1.1619538759474
1.16195387594827
1.16195387594914
1.16195387595001
1.16195387595086
1.1619538759517
1.16195387595252
1.16195387595332
1.16195387595408
1.16195387595479
1.16195387595538
1.16195387595564
1.16195387595507
1.16195387595239
1.16195387594443
1.16195387592322
1.16195387586697
1.16195387571167
1.1619538752634
1.16195387393917
1.16195387010627
1.16195385796662
1.16195385403887
1.16195385692792
1.16195385793777
1.16195385831609
1.16195385845245
1.16195385850093
1.16195385851827
1.16195385852466
1.16195385852712
1.16195385852815
1.16195385852867
1.16195385852903
1.16195385852937
1.16195385852973
1.16195385853015
1.16195385853062
1.16195385853114
1.1619538585317
1.16195385853232
1.16195385853298
1.16195385853368
1.16195385853442
1.16195385853519
1.16195385853599
1.16195385853682
1.16195385853767
1.16195385853853
1.16195385853941
1.16195385854029
1.16195385854117
1.16195385854205
1.16195385854292
1.16195385854378
1.16195385854462
1.16195385854544
1.16195385854624
1.16195385854701
1.16195385854774
1.16195385854842
1.16195385854899
1.1619538585493
1.16195385854902
1.16195385854728
1.16195385854191
1.16195385852701
1.16195385848503
1.16195385836192
1.16195385799108
1.1619538568892
1.16195385331341
1.16195383321016
1.16195383402442
1.16195383430676
1.16195383441095
1.16195383444806
1.16195383446111
1.16195383446573
1.16195383446745
1.16195383446816
1.16195383446853
1.16195383446882
1.16195383446911
1.16195383446944
1.16195383446981
1.16195383447024
1.16195383447073
1.16195383447126
1.16195383447185
1.16195383447248
1.16195383447315
1.16195383447387
1.16195383447462
1.1619538344754
1.16195383447622
1.16195383447706
1.16195383447792
1.16195383447879
1.16195383447967
1.16195383448056
1.16195383448146
1.16195383448234
1.16195383448322
1.16195383448409
1.16195383448493
1.16195383448576
1.16195383448657
1.16195383448734
1.16195383448809
1.1619538344888
1.16195383448945
1.16195383449002
1.1619538344904
1.16195383449038
1.16195383448938
1.16195383448583
1.16195383447505
1.16195383444234
1.16195383434145
1.1619538340338
1.16195383301362
1.16195380827836
1.16195380850115
1.16195380857799
1.16195380860598
1.16195380861581
1.1619538086192
1.16195380862039
1.16195380862086
1.16195380862111
1.16195380862132
1.16195380862155
1.16195380862184
1.16195380862217
1.16195380862256
1.16195380862301
1.16195380862351
1.16195380862406
1.16195380862465
1.1619538086253
1.16195380862599
1.16195380862671
1.16195380862748
1.16195380862828
1.1619538086291
1.16195380862995
1.16195380863082
1.16195380863171
1.1619538086326
1.1619538086335
1.1619538086344
1.1619538086353
1.16195380863619
1.16195380863706
1.16195380863792
1.16195380863875
1.16195380863956
1.16195380864034
1.1619538086411
1.16195380864182
1.1619538086425
1.16195380864314
1.16195380864371
1.16195380864414
1.16195380864431
1.16195380864378
1.16195380864134
1.16195380863306
1.16195380860641
1.16195380852287
1.16195380824034
1.16195378221672
1.16195378227591
1.16195378229628
1.16195378230364
1.16195378230617
1.16195378230701
1.16195378230731
1.16195378230747
1.16195378230761
1.1619537823078
1.16195378230803
1.16195378230832
1.16195378230867
1.16195378230908
1.16195378230954
1.16195378231005
1.16195378231061
1.16195378231123
1.16195378231189
1.16195378231259
1.16195378231333
1.16195378231411
1.16195378231492
1.16195378231576
1.16195378231662
1.1619537823175
1.16195378231839
1.1619537823193
1.16195378232021
1.16195378232112
1.16195378232202
1.16195378232292
1.1619537823238
1.16195378232467
1.16195378232551
1.16195378232633
1.16195378232712
1.16195378232788
1.1619537823286
1.1619537823293
1.16195378232995
1.16195378233057
1.16195378233112
1.16195378233158
1.16195378233183
1.16195378233155
1.16195378232968
1.16195378232291
1.16195378230085
1.16195378222484
1.16195375585217
1.16195375586735
1.16195375587261
1.16195375587452
1.16195375587517
1.16195375587536
1.16195375587546
1.16195375587555
1.16195375587569
1.16195375587588
1.16195375587613
1.16195375587644
1.1619537558768
1.16195375587722
1.16195375587769
1.16195375587822
1.1619537558788
1.16195375587943
1.1619537558801
1.16195375588082
1.16195375588157
1.16195375588236
1.16195375588319
1.16195375588404
1.16195375588491
1.1619537558858
1.16195375588671
1.16195375588762
1.16195375588854
1.16195375588946
1.16195375589038
1.16195375589128
1.16195375589217
1.16195375589305
1.1619537558939
1.16195375589472
1.16195375589552
1.16195375589628
1.16195375589702
1.16195375589772
1.16195375589838
1.161953755899
1.16195375589958
1.1619537559001
1.16195375590054
1.1619537559008
1.16195375590056
1.16195375589895
1.16195375589334
1.16195375587354
1.16195372940837
1.16195372941203
1.16195372941333
1.16195372941386
1.16195372941404
1.1619537294141
1.16195372941416
1.16195372941426
1.16195372941441
1.16195372941462
1.16195372941489
1.16195372941521
1.16195372941559
1.16195372941603
1.16195372941652
1.16195372941706
1.16195372941765
1.1619537294183
1.16195372941898
1.16195372941971
1.16195372942048
1.16195372942129
1.16195372942212
1.16195372942299
1.16195372942387
1.16195372942478
1.16195372942569
1.16195372942662
1.16195372942755
1.16195372942848
1.1619537294294
1.16195372943032
1.16195372943122
1.1619537294321
1.16195372943295
1.16195372943379
1.16195372943459
1.16195372943536
1.1619537294361
1.1619537294368
1.16195372943746
1.16195372943809
1.16195372943867
1.1619537294392
1.16195372943967
1.16195372944004
1.1619537294402
1.1619537294399
1.16195372943857
1.16195372943368
1.1619537029443
1.161953702945
1.16195370294531
1.16195370294551
1.16195370294559
1.16195370294564
1.16195370294571
1.16195370294583
1.161953702946
1.16195370294623
1.16195370294652
1.16195370294686
1.16195370294725
1.16195370294771
1.16195370294821
1.16195370294877
1.16195370294938
1.16195370295004
1.16195370295074
1.16195370295148
1.16195370295227
1.16195370295309
1.16195370295393
1.16195370295481
1.16195370295571
1.16195370295662
1.16195370295755
1.16195370295849
1.16195370295943
1.16195370296037
1.1619537029613
1.16195370296223
1.16195370296313
1.16195370296402
1.16195370296489
1.16195370296573
1.16195370296653
1.16195370296731
1.16195370296805
1.16195370296876
1.16195370296942
1.16195370297004
1.16195370297062
1.16195370297115
1.16195370297162
1.161953702972
1.16195370297224
1.16195370297226
1.16195370297201
1.16195370297098
1.16195367647513
1.16195367647511
1.16195367647517
1.1619536764753
1.16195367647538
1.16195367647544
1.16195367647554
1.16195367647568
1.16195367647588
1.16195367647612
1.16195367647643
1.16195367647679
1.1619536764772
1.16195367647767
1.16195367647819
1.16195367647877
1.16195367647939
1.16195367648007
1.16195367648078
1.16195367648154
1.16195367648234
1.16195367648317
1.16195367648403
1.16195367648492
1.16195367648583
1.16195367648676
1.1619536764877
1.16195367648865
1.1619536764896
1.16195367649055
1.16195367649149
1.16195367649242
1.16195367649334
1.16195367649423
1.16195367649511
1.16195367649595
1.16195367649677
1.16195367649755
1.16195367649829
1.161953676499
1.16195367649966
1.16195367650028
1.16195367650085
1.16195367650137
1.16195367650183
1.16195367650221
1.16195367650246
1.16195367650255
1.16195367650257
1.16195367650251
1.1619536500047
1.1619536500045
1.16195365000451
1.16195365000464
1.16195365000474
1.16195365000482
1.16195365000494
1.16195365000511
1.16195365000533
1.16195365000559
1.16195365000592
1.16195365000629
1.16195365000673
1.16195365000721
1.16195365000775
1.16195365000834
1.16195365000899
1.16195365000967
1.16195365001041
1.16195365001118
1.16195365001199
1.16195365001284
1.16195365001371
1.16195365001461
1.16195365001553
1.16195365001647
1.16195365001743
1.16195365001838
1.16195365001934
1.1619536500203
1.16195365002126
1.1619536500222
1.16195365002312
1.16195365002402
1.1619536500249
1.16195365002576
1.16195365002658
1.16195365002736
1.16195365002811
1.16195365002882
1.16195365002948
1.1619536500301
1.16195365003067
1.16195365003118
1.16195365003163
1.161953650032
1.16195365003224
1.16195365003233
1.16195365003242
1.1619536500326
1.16195362353396
1.16195362353372
1.16195362353373
1.16195362353387
1.16195362353398
1.16195362353409
1.16195362353424
1.16195362353443
1.16195362353466
1.16195362353495
1.1619536235353
1.16195362353569
1.16195362353614
1.16195362353665
1.1619536235372
1.16195362353781
1.16195362353847
1.16195362353917
1.16195362353992
1.16195362354071
1.16195362354153
1.16195362354239
1.16195362354328
1.16195362354419
1.16195362354513
1.16195362354608
1.16195362354704
1.16195362354801
1.16195362354898
1.16195362354995
1.16195362355091
1.16195362355186
1.16195362355279
1.1619536235537
1.16195362355459
1.16195362355545
1.16195362355628
1.16195362355707
1.16195362355782
1.16195362355853
1.16195362355919
1.16195362355981
1.16195362356037
1.16195362356088
1.16195362356131
1.16195362356167
1.16195362356191
1.16195362356199
1.16195362356209
1.16195362356233
1.16195359706314
1.1619535970629
1.16195359706291
1.16195359706307
1.1619535970632
1.16195359706334
1.1619535970635
1.16195359706371
1.16195359706397
1.16195359706428
1.16195359706464
1.16195359706506
1.16195359706553
1.16195359706605
1.16195359706662
1.16195359706725
1.16195359706792
1.16195359706864
1.1619535970694
1.16195359707021
1.16195359707105
1.16195359707192
1.16195359707282
1.16195359707375
1.16195359707469
1.16195359707566
1.16195359707663
1.16195359707761
1.16195359707859
1.16195359707957
1.16195359708054
1.1619535970815
1.16195359708244
1.16195359708335
1.16195359708425
1.16195359708511
1.16195359708594
1.16195359708674
1.16195359708749
1.1619535970882
1.16195359708887
1.16195359708948
1.16195359709004
1.16195359709054
1.16195359709097
1.16195359709131
1.16195359709154
1.16195359709162
1.16195359709172
1.16195359709197
1.16195357059231
1.16195357059207
1.16195357059209
1.16195357059227
1.16195357059242
1.16195357059258
1.16195357059277
1.161953570593
1.16195357059328
1.16195357059361
1.16195357059399
1.16195357059442
1.16195357059491
1.16195357059545
1.16195357059604
1.16195357059668
1.16195357059737
1.1619535705981
1.16195357059888
1.1619535705997
1.16195357060055
1.16195357060144
1.16195357060235
1.16195357060329
1.16195357060425
1.16195357060523
1.16195357060621
1.1619535706072
1.16195357060819
1.16195357060918
1.16195357061016
1.16195357061112
1.16195357061207
1.161953570613
1.1619535706139
1.16195357061477
1.1619535706156
1.1619535706164
1.16195357061716
1.16195357061787
1.16195357061853
1.16195357061915
1.1619535706197
1.16195357062019
1.16195357062062
1.16195357062095
1.16195357062117
1.16195357062124
1.16195357062134
1.16195357062159
1.16195354412149
1.16195354412126
1.16195354412129
1.16195354412148
1.16195354412165
1.16195354412183
1.16195354412204
1.16195354412229
1.16195354412259
1.16195354412294
1.16195354412334
1.16195354412379
1.1619535441243
1.16195354412486
1.16195354412546
1.16195354412612
1.16195354412683
1.16195354412758
1.16195354412837
1.1619535441292
1.16195354413007
1.16195354413097
1.1619535441319
1.16195354413285
1.16195354413382
1.1619535441348
1.1619535441358
1.1619535441368
1.1619535441378
1.1619535441388
1.16195354413978
1.16195354414076
1.16195354414171
1.16195354414265
1.16195354414355
1.16195354414443
1.16195354414527
1.16195354414607
1.16195354414683
1.16195354414754
1.16195354414821
1.16195354414882
1.16195354414937
1.16195354414986
1.16195354415027
1.1619535441506
1.16195354415081
1.16195354415087
1.16195354415097
1.16195354415122
1.16195351765069
1.16195351765047
1.1619535176505
1.16195351765072
1.1619535176509
1.1619535176511
1.16195351765133
1.16195351765161
1.16195351765193
1.1619535176523
1.16195351765272
1.16195351765319
1.16195351765371
1.16195351765429
1.16195351765491
1.16195351765558
1.1619535176563
1.16195351765707
1.16195351765788
1.16195351765872
1.1619535176596
1.16195351766052
1.16195351766146
1.16195351766242
1.1619535176634
1.1619535176644
1.16195351766541
1.16195351766642
1.16195351766743
1.16195351766843
1.16195351766943
1.16195351767041
1.16195351767137
1.16195351767231
1.16195351767322
1.16195351767411
1.16195351767495
1.16195351767576
1.16195351767652
1.16195351767723
1.16195351767789
1.1619535176785
1.16195351767905
1.16195351767953
1.16195351767994
1.16195351768026
1.16195351768047
1.16195351768052
1.16195351768061
1.16195351768086
1.16195349117992
1.1619534911797
1.16195349117975
1.16195349117998
1.16195349118019
1.16195349118041
1.16195349118066
1.16195349118096
1.1619534911813
1.16195349118169
1.16195349118212
1.16195349118261
1.16195349118315
1.16195349118375
1.16195349118439
1.16195349118508
1.16195349118581
1.16195349118659
1.16195349118742
1.16195349118828
1.16195349118917
1.1619534911901
1.16195349119105
1.16195349119202
1.16195349119302
1.16195349119402
1.16195349119504
1.16195349119606
1.16195349119708
1.16195349119809
1.1619534911991
1.16195349120009
1.16195349120106
1.161953491202
1.16195349120292
1.16195349120381
1.16195349120466
1.16195349120546
1.16195349120623
1.16195349120694
1.16195349120761
1.16195349120821
1.16195349120876
1.16195349120923
1.16195349120964
1.16195349120995
1.16195349121014
1.16195349121019
1.16195349121028
1.16195349121052
1.16195346470919
1.16195346470898
1.16195346470905
1.1619534647093
1.16195346470952
1.16195346470976
1.16195346471003
1.16195346471035
1.16195346471071
1.16195346471112
1.16195346471157
1.16195346471208
1.16195346471264
1.16195346471325
1.1619534647139
1.16195346471461
1.16195346471536
1.16195346471616
1.16195346471699
1.16195346471787
1.16195346471878
1.16195346471971
1.16195346472068
1.16195346472167
1.16195346472267
1.16195346472369
1.16195346472471
1.16195346472574
1.16195346472677
1.16195346472779
1.16195346472881
1.1619534647298
1.16195346473078
1.16195346473173
1.16195346473266
1.16195346473354
1.1619534647344
1.16195346473521
1.16195346473597
1.16195346473669
1.16195346473735
1.16195346473796
1.1619534647385
1.16195346473897
1.16195346473936
1.16195346473967
1.16195346473986
1.16195346473989
1.16195346473997
1.16195346474021
1.16195343823851
1.16195343823831
1.16195343823839
1.16195343823866
1.16195343823891
1.16195343823917
1.16195343823946
1.16195343823979
1.16195343824017
1.1619534382406
1.16195343824107
1.1619534382416
1.16195343824218
1.1619534382428
1.16195343824347
1.16195343824419
1.16195343824496
1.16195343824577
1.16195343824662
1.16195343824751
1.16195343824843
1.16195343824938
1.16195343825036
1.16195343825135
1.16195343825237
1.1619534382534
1.16195343825443
1.16195343825547
1.16195343825651
1.16195343825754
1.16195343825856
1.16195343825956
1.16195343826055
1.1619534382615
1.16195343826243
1.16195343826333
1.16195343826418
1.161953438265
1.16195343826576
1.16195343826648
1.16195343826714
1.16195343826774
1.16195343826828
1.16195343826874
1.16195343826913
1.16195343826943
1.16195343826961
1.16195343826963
1.1619534382697
1.16195343826993
1.16195341176788
1.1619534117677
1.1619534117678
1.16195341176809
1.16195341176835
1.16195341176864
1.16195341176895
1.1619534117693
1.1619534117697
1.16195341177015
1.16195341177064
1.16195341177118
1.16195341177177
1.16195341177241
1.1619534117731
1.16195341177384
1.16195341177462
1.16195341177544
1.16195341177631
1.16195341177721
1.16195341177814
1.1619534117791
1.16195341178009
1.1619534117811
1.16195341178213
1.16195341178316
1.16195341178421
1.16195341178525
1.1619534117863
1.16195341178734
1.16195341178837
1.16195341178938
1.16195341179036
1.16195341179133
1.16195341179226
1.16195341179316
1.16195341179402
1.16195341179483
1.1619534117956
1.16195341179632
1.16195341179698
1.16195341179758
1.16195341179811
1.16195341179857
1.16195341179896
1.16195341179924
1.16195341179941
1.16195341179941
1.16195341179948
1.1619534117997
1.16195338529732
1.16195338529716
1.16195338529727
1.16195338529759
1.16195338529788
1.16195338529818
1.16195338529851
1.16195338529889
1.1619533852993
1.16195338529977
1.16195338530028
1.16195338530084
1.16195338530144
1.1619533853021
1.1619533853028
1.16195338530356
1.16195338530435
1.16195338530519
1.16195338530606
1.16195338530698
1.16195338530792
1.1619533853089
1.16195338530989
1.16195338531091
1.16195338531195
1.16195338531299
1.16195338531405
1.1619533853151
1.16195338531616
1.1619533853172
1.16195338531824
1.16195338531925
1.16195338532025
1.16195338532122
1.16195338532215
1.16195338532305
1.16195338532392
1.16195338532473
1.1619533853255