/*--------------------------------*- C++ -*----------------------------------*\
  =========                 |
  \\      /  F ield         | OpenFOAM: The Open Source CFD Toolbox
   \\    /   O peration     | Website:  https://openfoam.org
    \\  /    A nd           | Version:  10
     \\/     M anipulation  |
\*---------------------------------------------------------------------------*/
FoamFile
{
    format      ascii;
    class       volScalarField;
    location    "4";
    object      T;
}
// * * * * * * * * * * * * * * * * * * * * * * * * * * * * * * * * * * * * * //

dimensions      [0 0 0 1 0 0 0];

internalField   nonuniform List<scalar> 
2500
(
304.964064272508
304.944409170844
304.923928022552
304.913204826753
304.908349323146
304.906254736489
304.905386398181
304.905042862018
304.904913661722
304.904868162033
304.904851539816
304.904845557843
304.904843296606
304.904841747739
304.904840536629
304.904839298304
304.904838644107
304.904837860039
304.904836977483
304.904836349918
304.904835789519
304.904835273105
304.904834834156
304.904834585179
304.904834324973
304.904834062806
304.904833964068
304.904833889717
304.904833855363
304.90483393018
304.904834056941
304.904834286254
304.90483465362
304.90483512794
304.904835608152
304.904836165045
304.904836911409
304.904837938237
304.904840681167
304.904847163974
304.904865173116
304.904915702421
304.905053006878
304.905408802748
304.90628978018
304.908377403023
304.913197590812
304.923928265677
304.944671827192
304.963923471408
303.522119609064
303.454173976447
303.396975371053
303.365880115794
303.350695446246
303.343621169999
303.34047160294
303.33914701586
303.338624526102
303.338431729359
303.33836432042
303.338342011096
303.338334979704
303.338332517138
303.338331433463
303.338330710392
303.338330326121
303.33832991502
303.338329451832
303.338329084891
303.338328719824
303.338328332767
303.338327985701
303.338327798544
303.338327645465
303.33832746693
303.338327399765
303.338327342114
303.338327247507
303.338327290412
303.338327340901
303.338327374034
303.338327710734
303.338328168329
303.33832846952
303.338328875546
303.338329891774
303.338332679174
303.338341382558
303.338367394772
303.338443136685
303.338653129358
303.33920322072
303.340561402972
303.343728150695
303.350757051854
303.365827881073
303.396996236066
303.455129112308
303.522257321145
302.227043401451
302.135463680087
302.065333204135
302.027668507747
302.009329057759
302.000790342611
301.99698131963
301.995372355382
301.994734038413
301.994496851253
301.994413858468
301.994386534552
301.994378129629
301.994375552885
301.994374705698
301.994374342024
301.994374192495
301.994374046199
301.994373864105
301.994373703229
301.994373511914
301.994373269007
301.994373029913
301.994372900708
301.99437282233
301.994372715085
301.994372683261
301.99437264975
301.99437254443
301.994372545025
301.994372544784
301.994372497512
301.994372773774
301.994373150368
301.994373274002
301.994373497652
301.994374488742
301.994377673286
301.994387874135
301.994419163647
301.99451084662
301.994765224162
301.995430694495
301.997071079385
302.000892100359
302.009381854802
302.027631984898
302.065525131904
302.137136422236
302.229397755956
301.265582897015
301.180984731974
301.123519474689
301.093731552528
301.07980387068
301.073560427432
301.070856476372
301.069737396577
301.069299251099
301.069137735835
301.069081526124
301.069063137523
301.069057582505
301.069055967903
301.069055504867
301.069055375554
301.069055368747
301.069055359206
301.069055325299
301.069055278968
301.069055202902
301.069055075293
301.069054929928
301.069054845497
301.069054811628
301.069054759613
301.069054747346
301.069054736714
301.069054679565
301.069054675255
301.069054663641
301.069054590136
301.069054749371
301.069054969483
301.069055006494
301.069055089936
301.069055619974
301.069057572597
301.069064058168
301.06908435989
301.069144753997
301.069314800004
301.069766760979
301.070902414303
301.073613985001
301.079838018364
301.093760267444
301.123886822892
301.182901713801
301.269702409575
300.6529318235
300.591175988804
300.553399385318
300.534494607919
300.525986048333
300.52230521489
300.520753706058
300.520122464495
300.519877525287
300.519787527236
300.519756198272
300.519745955677
300.519742895277
300.519742035401
300.519741851866
300.519741849792
300.519741869456
300.51974189307
300.519741901261
300.51974189801
300.519741882512
300.519741828833
300.519741750824
300.519741701518
300.519741694695
300.519741684821
300.519741686066
300.519741683752
300.519741659847
300.51974165706
300.519741642401
300.519741575612
300.519741648879
300.519741739656
300.519741732768
300.519741764088
300.519742008402
300.519742995025
300.519746408478
300.519757277429
300.519789933903
300.519882770478
300.520132276383
300.520768707733
300.522321344023
300.525994538626
300.534527481697
300.553738672902
300.592803107514
300.657257773087
300.308900045602
300.270900869006
300.249721998074
300.239463116774
300.234997356639
300.233125454785
300.232355201604
300.232046247651
300.231927067616
300.231883281367
300.231867984301
300.231862969618
300.23186148162
300.231861088865
300.231861035168
300.231861054075
300.231861080952
300.231861106039
300.231861118716
300.231861120244
300.2318611212
300.23186110823
300.231861070485
300.231861047611
300.231861052785
300.231861056836
300.231861060449
300.231861061213
300.231861053076
300.231861050143
300.231861037912
300.231860994169
300.231861022937
300.231861054831
300.231861044905
300.231861052464
300.231861144176
300.231861580963
300.231863167564
300.231868293798
300.231883790636
300.23192807617
300.232047916658
300.232357009891
300.233124800579
300.234990761838
300.239475286145
300.249940387903
300.27200974009
300.312321322078
300.13525980159
300.114798662226
300.104302491931
300.099368407445
300.097281240352
300.09643008383
300.096087254276
300.095951398717
300.095899190792
300.095879972569
300.095873222278
300.09587099958
300.095870344485
300.095870187238
300.095870177335
300.095870190406
300.095870209245
300.09587022613
300.095870236757
300.09587023894
300.095870242738
300.095870241659
300.095870225785
300.095870217725
300.095870223491
300.095870228041
300.095870230581
300.09587023192
300.095870229446
300.0958702275
300.095870220208
300.095870196371
300.095870205752
300.095870214701
300.095870205613
300.095870209283
300.095870240744
300.095870411943
300.095871083854
300.095873285048
300.095879959622
300.095899062479
300.095950923207
300.096085707312
300.096425522286
300.097271113094
300.099365349713
300.104412112135
300.115436881053
300.137488208037
300.055272873091
300.045389167186
300.040678362327
300.038524926216
300.037636144405
300.037282209693
300.037142338725
300.037087495022
300.037066471527
300.037058708265
300.037055964699
300.0370550568
300.037054792051
300.037054733965
300.037054733839
300.037054741957
300.037054752388
300.03705476164
300.037054768046
300.037054770437
300.037054772674
300.037054773041
300.037054767918
300.037054766111
300.037054769737
300.037054772265
300.037054773559
300.037054774515
300.037054773698
300.037054772461
300.037054768957
300.037054757729
300.037054760002
300.037054761546
300.037054756838
300.037054757384
300.037054765035
300.037054828301
300.037055093217
300.037055970865
300.037058633919
300.037066243865
300.037086906509
300.037140856974
300.03727851406
300.037628164584
300.038517328157
300.0407231507
300.045710009352
300.056526651027
300.021232255802
300.016872628756
300.014924300436
300.014056953124
300.013706534416
300.013569821541
300.013516704092
300.013496073552
300.013488178921
300.013485252869
300.013484212391
300.013483866374
300.013483766547
300.013483746548
300.01348374796
300.013483752222
300.01348375723
300.013483761639
300.013483764854
300.013483766341
300.013483767357
300.013483767491
300.013483766531
300.013483766965
300.013483768449
300.01348376954
300.013483770092
300.013483770564
300.013483770261
300.013483769588
300.013483768066
300.013483763312
300.013483763524
300.013483763298
300.013483761518
300.013483761601
300.013483762886
300.013483784533
300.013483882351
300.013484211572
300.013485209419
300.013488049562
300.013495742822
300.013515870895
300.013567711486
300.013701733688
300.01405056364
300.014939197487
300.017016851733
300.021860020415
300.007715424027
300.005935869263
300.005183549142
300.004857045077
300.004727589869
300.004677968894
300.004658979522
300.004651667977
300.00464887401
300.004647834499
300.004647462717
300.004647338558
300.004647303084
300.004647296602
300.004647297637
300.004647299606
300.004647301772
300.004647303669
300.004647305105
300.004647305919
300.004647306362
300.004647306413
300.004647306428
300.0046473069
300.004647307501
300.00464730792
300.004647308129
300.004647308313
300.004647308192
300.004647307877
300.004647307261
300.004647305495
300.004647305274
300.004647304978
300.004647304302
300.004647304105
300.004647304138
300.004647311102
300.004647345432
300.004647462733
300.004647817309
300.00464882073
300.004651526888
300.00465860581
300.00467696538
300.0047251465
300.00485313791
300.005187305727
300.005994829082
300.008000911087
300.002666738376
300.001987510704
300.001713569077
300.001597562265
300.001552335224
300.001535261601
300.001528815178
300.00152635298
300.001525413353
300.0015250625
300.001524936372
300.001524894108
300.001524882186
300.0015248802
300.001524880683
300.001524881504
300.001524882366
300.001524883119
300.001524883706
300.001524884079
300.001524884328
300.001524884433
300.001524884486
300.00152488468
300.001524884904
300.001524885054
300.001524885127
300.001524885186
300.001524885137
300.001524885006
300.001524884772
300.001524884166
300.001524883997
300.00152488382
300.001524883523
300.001524883346
300.001524883228
300.001524885415
300.001524896969
300.001524936923
300.001525057269
300.001525395485
300.00152630231
300.001528669645
300.001534838937
300.001551232269
300.001595569069
300.001714025021
300.002009707682
300.002786426572
300.000880893758
300.000636459043
300.000541662195
300.000502456428
300.000487404286
300.000481796207
300.000479703825
300.000478910591
300.000478608308
300.00047849508
300.000478454196
300.00047844046
300.000478436629
300.000478436046
300.00047843625
300.000478436565
300.000478436885
300.000478437165
300.000478437387
300.000478437538
300.000478437648
300.000478437708
300.000478437745
300.000478437821
300.000478437899
300.000478437949
300.000478437973
300.000478437989
300.000478437969
300.00047843792
300.000478437837
300.00047843764
300.000478437557
300.000478437471
300.000478437345
300.000478437245
300.00047843717
300.000478437845
300.000478441594
300.00047845467
300.000478493896
300.000478603305
300.000478894656
300.00047965259
300.000481633336
300.000486950259
300.000501558764
300.000541449068
300.00064422709
300.000927679136
300.000279247074
300.000195746811
300.000164381877
300.000151699939
300.000146899533
300.000145131236
300.000144478306
300.000144232479
300.00014413895
300.000144103824
300.000144091094
300.000144086807
300.000144085622
300.000144085457
300.000144085535
300.000144085647
300.000144085758
300.000144085856
300.000144085935
300.000144085991
300.000144086032
300.000144086058
300.000144086076
300.000144086104
300.000144086129
300.000144086145
300.000144086153
300.000144086156
300.000144086149
300.000144086132
300.000144086103
300.000144086042
300.000144086008
300.000144085972
300.000144085922
300.000144085878
300.000144085845
300.000144086051
300.00014408723
300.000144091359
300.000144103688
300.00014413781
300.000144228008
300.00014446157
300.000145072593
300.000146725892
300.000151331802
300.000164172558
300.000198291513
300.000296451008
300.000085260825
300.000058032635
300.000048062697
300.000044116624
300.000042642545
300.000042104877
300.000041908123
300.000041834511
300.000041806552
300.00004179603
300.000041792204
300.000041790913
300.000041790557
300.00004179051
300.000041790537
300.000041790573
300.000041790609
300.000041790641
300.000041790667
300.000041790685
300.0000417907
300.000041790709
300.000041790716
300.000041790725
300.000041790733
300.000041790738
300.00004179074
300.00004179074
300.000041790738
300.000041790732
300.000041790723
300.000041790705
300.000041790693
300.00004179068
300.000041790662
300.000041790645
300.000041790634
300.000041790697
300.000041791058
300.00004179232
300.00004179607
300.000041806366
300.000041833378
300.000041902942
300.000042084846
300.000042580015
300.000043976431
300.000047947455
300.000058816891
300.000091254816
300.000025153041
300.00001663789
300.000013581505
300.00001239559
300.000011958027
300.000011799794
300.000011742331
300.000011720953
300.000011712847
300.000011709791
300.000011708676
300.000011708298
300.000011708192
300.000011708178
300.000011708185
300.000011708195
300.000011708205
300.000011708214
300.000011708222
300.000011708227
300.000011708231
300.000011708234
300.000011708236
300.000011708238
300.00001170824
300.000011708242
300.000011708242
300.000011708242
300.000011708242
300.00001170824
300.000011708237
300.000011708232
300.000011708229
300.000011708225
300.000011708219
300.000011708215
300.000011708212
300.000011708232
300.000011708341
300.000011708717
300.000011709824
300.000011712839
300.000011720688
300.00001174078
300.000011793227
300.00001193661
300.000012345346
300.000013529961
300.000016866041
300.000027143392
300.000007190226
300.000004626131
300.00000371966
300.000003374275
300.000003248306
300.000003203095
300.000003186781
300.00000318074
300.000003178452
300.000003177587
300.000003177269
300.00000317716
300.000003177128
300.000003177122
300.000003177122
300.000003177124
300.000003177126
300.000003177127
300.000003177128
300.000003177129
300.00000317713
300.00000317713
300.00000317713
300.00000317713
300.000003177131
300.000003177131
300.000003177131
300.000003177131
300.000003177131
300.00000317713
300.00000317713
300.000003177129
300.000003177128
300.000003177128
300.000003177127
300.000003177126
300.000003177127
300.000003177135
300.000003177168
300.000003177278
300.000003177598
300.000003178458
300.000003180677
300.00000318632
300.000003201008
300.000003241274
300.000003357165
300.00000369921
300.000004688882
300.000007823218
300.000001996809
300.000001250853
300.000000990078
300.000000892322
300.00000085705
300.000000844473
300.000000839958
300.000000838291
300.000000837659
300.000000837418
300.000000837328
300.000000837295
300.000000837284
300.00000083728
300.000000837279
300.000000837278
300.000000837277
300.000000837276
300.000000837275
300.000000837274
300.000000837274
300.000000837273
300.000000837273
300.000000837272
300.000000837272
300.000000837272
300.000000837272
300.000000837272
300.000000837272
300.000000837272
300.000000837272
300.000000837272
300.000000837273
300.000000837273
300.000000837274
300.000000837275
300.000000837277
300.000000837281
300.000000837292
300.000000837325
300.000000837417
300.000000837658
300.000000838271
300.000000839817
300.000000843823
300.000000854821
300.000000886743
300.000000982613
300.000001267162
300.000002190413
300.000000540176
300.000000329912
300.000000256983
300.000000230022
300.000000220388
300.000000216973
300.00000021575
300.000000215298
300.000000215125
300.000000215057
300.00000021503
300.000000215018
300.000000215013
300.00000021501
300.000000215007
300.000000215005
300.000000215003
300.000000215002
300.000000215001
300.000000214999
300.000000214998
300.000000214997
300.000000214997
300.000000214996
300.000000214996
300.000000214995
300.000000214995
300.000000214995
300.000000214995
300.000000214996
300.000000214996
300.000000214997
300.000000214998
300.000000214999
300.000000215
300.000000215001
300.000000215003
300.000000215006
300.000000215011
300.000000215023
300.00000021505
300.000000215118
300.000000215286
300.000000215701
300.00000021677
300.0000002197
300.000000228269
300.000000254426
300.000000333902
300.000000597322
300.000000142886
300.00000008534
300.000000065475
300.000000058204
300.000000055627
300.000000054718
300.000000054391
300.000000054268
300.000000054219
300.000000054198
300.000000054188
300.000000054182
300.000000054178
300.000000054175
300.000000054173
300.00000005417
300.000000054168
300.000000054167
300.000000054165
300.000000054164
300.000000054163
300.000000054162
300.000000054161
300.00000005416
300.00000005416
300.000000054159
300.000000054159
300.000000054159
300.000000054159
300.00000005416
300.00000005416
300.000000054161
300.000000054162
300.000000054163
300.000000054164
300.000000054166
300.000000054168
300.000000054171
300.000000054174
300.00000005418
300.000000054189
300.00000005421
300.000000054257
300.000000054369
300.00000005465
300.000000055416
300.000000057668
300.000000064641
300.000000086247
300.000000159211
300.00000003729
300.000000021988
300.00000001671
300.000000014779
300.000000014098
300.000000013857
300.000000013769
300.000000013733
300.000000013717
300.000000013709
300.000000013703
300.000000013699
300.000000013695
300.000000013692
300.000000013689
300.000000013687
300.000000013685
300.000000013683
300.000000013682
300.00000001368
300.000000013679
300.000000013678
300.000000013677
300.000000013676
300.000000013676
300.000000013676
300.000000013675
300.000000013675
300.000000013676
300.000000013676
300.000000013676
300.000000013677
300.000000013678
300.000000013679
300.000000013681
300.000000013683
300.000000013685
300.000000013687
300.00000001369
300.000000013694
300.000000013699
300.000000013707
300.000000013723
300.000000013754
300.000000013829
300.000000014029
300.000000014617
300.000000016448
300.000000022172
300.000000041811
300.000000009888
300.000000005952
300.000000004583
300.000000004067
300.000000003883
300.000000003817
300.000000003791
300.000000003778
300.000000003771
300.000000003765
300.000000003761
300.000000003757
300.000000003754
300.000000003751
300.000000003748
300.000000003745
300.000000003743
300.000000003741
300.00000000374
300.000000003738
300.000000003737
300.000000003736
300.000000003735
300.000000003734
300.000000003734
300.000000003734
300.000000003733
300.000000003733
300.000000003734
300.000000003734
300.000000003735
300.000000003735
300.000000003736
300.000000003738
300.000000003739
300.000000003741
300.000000003743
300.000000003745
300.000000003748
300.000000003752
300.000000003755
300.00000000376
300.000000003767
300.000000003779
300.000000003801
300.000000003856
300.000000004015
300.000000004501
300.000000005978
300.000000011099
300.000000002933
300.000000001978
300.000000001633
300.000000001483
300.000000001427
300.000000001406
300.000000001396
300.000000001389
300.000000001384
300.000000001379
300.000000001375
300.000000001371
300.000000001368
300.000000001365
300.000000001362
300.00000000136
300.000000001358
300.000000001356
300.000000001354
300.000000001353
300.000000001351
300.00000000135
300.000000001349
300.000000001349
300.000000001348
300.000000001348
300.000000001348
300.000000001348
300.000000001348
300.000000001348
300.000000001349
300.00000000135
300.000000001351
300.000000001352
300.000000001353
300.000000001355
300.000000001357
300.00000000136
300.000000001363
300.000000001366
300.000000001369
300.000000001373
300.000000001378
300.000000001384
300.000000001393
300.000000001412
300.000000001463
300.000000001605
300.000000001974
300.000000003243
300.000000001204
300.000000001013
300.00000000093
300.000000000873
300.000000000849
300.000000000839
300.000000000833
300.000000000828
300.000000000823
300.000000000819
300.000000000815
300.000000000811
300.000000000808
300.000000000805
300.000000000802
300.0000000008
300.000000000798
300.000000000796
300.000000000794
300.000000000792
300.000000000791
300.00000000079
300.000000000789
300.000000000789
300.000000000788
300.000000000788
300.000000000788
300.000000000788
300.000000000788
300.000000000788
300.000000000789
300.00000000079
300.000000000791
300.000000000792
300.000000000793
300.000000000795
300.000000000797
300.0000000008
300.000000000803
300.000000000806
300.000000000809
300.000000000813
300.000000000817
300.000000000822
300.000000000827
300.000000000837
300.000000000861
300.000000000918
300.000000001003
300.000000001275
300.000000000782
300.000000000782
300.000000000765
300.000000000732
300.000000000716
300.000000000709
300.000000000704
300.000000000699
300.000000000695
300.00000000069
300.000000000686
300.000000000683
300.000000000679
300.000000000676
300.000000000674
300.000000000671
300.000000000669
300.000000000667
300.000000000665
300.000000000664
300.000000000663
300.000000000661
300.000000000661
300.00000000066
300.000000000659
300.000000000659
300.000000000659
300.000000000659
300.000000000659
300.000000000659
300.00000000066
300.000000000661
300.000000000662
300.000000000663
300.000000000665
300.000000000667
300.000000000669
300.000000000671
300.000000000674
300.000000000677
300.00000000068
300.000000000684
300.000000000688
300.000000000693
300.000000000697
300.000000000705
300.000000000722
300.000000000758
300.000000000773
300.000000000791
300.000000000681
300.000000000728
300.000000000727
300.000000000699
300.000000000686
300.00000000068
300.000000000675
300.00000000067
300.000000000666
300.000000000661
300.000000000658
300.000000000654
300.00000000065
300.000000000647
300.000000000645
300.000000000642
300.00000000064
300.000000000638
300.000000000636
300.000000000635
300.000000000634
300.000000000633
300.000000000632
300.000000000631
300.00000000063
300.00000000063
300.00000000063
300.00000000063
300.00000000063
300.000000000631
300.000000000631
300.000000000632
300.000000000633
300.000000000634
300.000000000636
300.000000000638
300.00000000064
300.000000000642
300.000000000645
300.000000000648
300.000000000652
300.000000000655
300.000000000659
300.000000000663
300.000000000668
300.000000000675
300.000000000691
300.000000000721
300.000000000719
300.000000000675
300.000000000657
300.000000000716
300.000000000719
300.000000000692
300.000000000679
300.000000000673
300.000000000668
300.000000000664
300.000000000659
300.000000000655
300.000000000651
300.000000000647
300.000000000644
300.000000000641
300.000000000638
300.000000000636
300.000000000634
300.000000000632
300.00000000063
300.000000000629
300.000000000627
300.000000000626
300.000000000625
300.000000000625
300.000000000624
300.000000000624
300.000000000624
300.000000000624
300.000000000624
300.000000000624
300.000000000625
300.000000000626
300.000000000627
300.000000000628
300.00000000063
300.000000000631
300.000000000633
300.000000000636
300.000000000639
300.000000000642
300.000000000645
300.000000000649
300.000000000653
300.000000000657
300.000000000662
300.000000000668
300.000000000684
300.000000000713
300.000000000707
300.000000000647
300.000000000652
300.000000000714
300.000000000717
300.000000000691
300.000000000678
300.000000000672
300.000000000667
300.000000000662
300.000000000658
300.000000000654
300.00000000065
300.000000000646
300.000000000643
300.000000000639
300.000000000637
300.000000000634
300.000000000632
300.00000000063
300.000000000629
300.000000000627
300.000000000626
300.000000000625
300.000000000624
300.000000000623
300.000000000623
300.000000000622
300.000000000622
300.000000000622
300.000000000622
300.000000000623
300.000000000623
300.000000000624
300.000000000625
300.000000000627
300.000000000628
300.00000000063
300.000000000632
300.000000000634
300.000000000637
300.00000000064
300.000000000644
300.000000000648
300.000000000651
300.000000000656
300.00000000066
300.000000000667
300.000000000683
300.000000000712
300.000000000705
300.000000000641
300.000000000652
300.000000000714
300.000000000717
300.000000000691
300.000000000677
300.000000000671
300.000000000666
300.000000000662
300.000000000657
300.000000000653
300.000000000649
300.000000000645
300.000000000642
300.000000000639
300.000000000636
300.000000000634
300.000000000632
300.00000000063
300.000000000628
300.000000000627
300.000000000625
300.000000000624
300.000000000623
300.000000000623
300.000000000622
300.000000000622
300.000000000622
300.000000000622
300.000000000622
300.000000000622
300.000000000623
300.000000000624
300.000000000625
300.000000000626
300.000000000628
300.000000000629
300.000000000632
300.000000000634
300.000000000637
300.00000000064
300.000000000643
300.000000000647
300.000000000651
300.000000000655
300.00000000066
300.000000000667
300.000000000683
300.000000000712
300.000000000705
300.000000000641
300.000000000652
300.000000000715
300.000000000718
300.000000000691
300.000000000677
300.000000000671
300.000000000666
300.000000000661
300.000000000657
300.000000000652
300.000000000648
300.000000000645
300.000000000641
300.000000000638
300.000000000636
300.000000000633
300.000000000631
300.000000000629
300.000000000628
300.000000000626
300.000000000625
300.000000000624
300.000000000623
300.000000000622
300.000000000622
300.000000000622
300.000000000621
300.000000000621
300.000000000622
300.000000000622
300.000000000623
300.000000000623
300.000000000624
300.000000000626
300.000000000627
300.000000000629
300.000000000631
300.000000000634
300.000000000636
300.000000000639
300.000000000643
300.000000000647
300.000000000651
300.000000000655
300.00000000066
300.000000000667
300.000000000683
300.000000000713
300.000000000706
300.000000000642
300.000000000654
300.000000000716
300.000000000719
300.000000000691
300.000000000677
300.000000000671
300.000000000666
300.000000000661
300.000000000656
300.000000000652
300.000000000648
300.000000000644
300.000000000641
300.000000000638
300.000000000635
300.000000000633
300.00000000063
300.000000000629
300.000000000627
300.000000000626
300.000000000624
300.000000000623
300.000000000623
300.000000000622
300.000000000621
300.000000000621
300.000000000621
300.000000000621
300.000000000621
300.000000000622
300.000000000622
300.000000000623
300.000000000624
300.000000000625
300.000000000627
300.000000000629
300.000000000631
300.000000000633
300.000000000636
300.000000000639
300.000000000642
300.000000000646
300.00000000065
300.000000000655
300.00000000066
300.000000000667
300.000000000684
300.000000000714
300.000000000707
300.000000000643
300.000000000655
300.000000000717
300.000000000719
300.000000000692
300.000000000677
300.00000000067
300.000000000665
300.00000000066
300.000000000655
300.000000000651
300.000000000647
300.000000000643
300.00000000064
300.000000000637
300.000000000634
300.000000000632
300.00000000063
300.000000000628
300.000000000626
300.000000000625
300.000000000624
300.000000000623
300.000000000622
300.000000000621
300.000000000621
300.000000000621
300.00000000062
300.00000000062
300.000000000621
300.000000000621
300.000000000622
300.000000000622
300.000000000623
300.000000000625
300.000000000626
300.000000000628
300.00000000063
300.000000000632
300.000000000635
300.000000000638
300.000000000642
300.000000000646
300.00000000065
300.000000000655
300.00000000066
300.000000000668
300.000000000684
300.000000000715
300.000000000709
300.000000000645
300.000000000657
300.000000000719
300.00000000072
300.000000000692
300.000000000677
300.00000000067
300.000000000664
300.000000000659
300.000000000654
300.00000000065
300.000000000646
300.000000000642
300.000000000639
300.000000000636
300.000000000633
300.000000000631
300.000000000629
300.000000000627
300.000000000625
300.000000000624
300.000000000623
300.000000000622
300.000000000621
300.000000000621
300.00000000062
300.00000000062
300.00000000062
300.00000000062
300.00000000062
300.00000000062
300.000000000621
300.000000000622
300.000000000623
300.000000000624
300.000000000625
300.000000000627
300.000000000629
300.000000000632
300.000000000634
300.000000000637
300.000000000641
300.000000000645
300.000000000649
300.000000000654
300.00000000066
300.000000000668
300.000000000685
300.000000000716
300.000000000711
300.000000000647
300.000000000659
300.000000000721
300.000000000722
300.000000000692
300.000000000677
300.000000000669
300.000000000663
300.000000000658
300.000000000653
300.000000000648
300.000000000644
300.000000000641
300.000000000637
300.000000000635
300.000000000632
300.00000000063
300.000000000628
300.000000000626
300.000000000624
300.000000000623
300.000000000622
300.000000000621
300.00000000062
300.00000000062
300.000000000619
300.000000000619
300.000000000619
300.000000000619
300.000000000619
300.00000000062
300.00000000062
300.000000000621
300.000000000622
300.000000000623
300.000000000624
300.000000000626
300.000000000628
300.000000000631
300.000000000633
300.000000000636
300.00000000064
300.000000000644
300.000000000649
300.000000000654
300.000000000659
300.000000000668
300.000000000686
300.000000000718
300.000000000714
300.00000000065
300.000000000662
300.000000000724
300.000000000723
300.000000000693
300.000000000677
300.000000000669
300.000000000662
300.000000000657
300.000000000652
300.000000000647
300.000000000643
300.000000000639
300.000000000636
300.000000000633
300.000000000631
300.000000000628
300.000000000627
300.000000000625
300.000000000623
300.000000000622
300.000000000621
300.00000000062
300.000000000619
300.000000000619
300.000000000618
300.000000000618
300.000000000618
300.000000000618
300.000000000618
300.000000000619
300.000000000619
300.00000000062
300.000000000621
300.000000000622
300.000000000623
300.000000000625
300.000000000627
300.000000000629
300.000000000632
300.000000000635
300.000000000639
300.000000000643
300.000000000648
300.000000000653
300.000000000659
300.000000000668
300.000000000687
300.00000000072
300.000000000717
300.000000000653
300.000000000666
300.000000000728
300.000000000725
300.000000000693
300.000000000676
300.000000000668
300.000000000661
300.000000000655
300.00000000065
300.000000000645
300.000000000641
300.000000000638
300.000000000634
300.000000000632
300.000000000629
300.000000000627
300.000000000625
300.000000000624
300.000000000622
300.000000000621
300.00000000062
300.000000000619
300.000000000618
300.000000000618
300.000000000617
300.000000000617
300.000000000617
300.000000000617
300.000000000617
300.000000000618
300.000000000618
300.000000000619
300.00000000062
300.000000000621
300.000000000622
300.000000000624
300.000000000626