/*--------------------------------*- C++ -*----------------------------------*\
  =========                 |
  \\      /  F ield         | OpenFOAM: The Open Source CFD Toolbox
   \\    /   O peration     | Website:  https://openfoam.org
    \\  /    A nd           | Version:  10
     \\/     M anipulation  |
\*---------------------------------------------------------------------------*/
FoamFile
{
    format      ascii;
    class       volVectorField;
    location    "4";
    object      U;
}
// * * * * * * * * * * * * * * * * * * * * * * * * * * * * * * * * * * * * * //

dimensions      [0 1 -1 0 0 0 0];

internalField   nonuniform List<vector> 
2500
(
(-1.63382068423562e-06 -7.22845414445841e-06 1.12037502883135e-24)
(-3.8683609485584e-06 -9.06803139956525e-06 1.11295455526215e-23)
(-3.01890285306784e-06 -9.43687393516766e-06 1.36736295153337e-24)
(-2.1359527554599e-06 -9.49437339330507e-06 7.09166711481815e-25)
(-1.34944784468779e-06 -9.43534977401279e-06 2.86976744264554e-24)
(-8.69452087257473e-07 -9.3742482129234e-06 5.76246008854224e-25)
(-5.81725922760354e-07 -9.33189339734584e-06 2.86192361864657e-25)
(-4.05754053446537e-07 -9.30644511472965e-06 3.37103090427589e-25)
(-2.97683525504295e-07 -9.29319644486829e-06 7.76085228266328e-25)
(-2.26558547739889e-07 -9.28660636195786e-06 7.48293070393496e-24)
(-1.77240437540129e-07 -9.28343974383103e-06 2.53179088599582e-24)
(-1.41455106547185e-07 -9.28190241170021e-06 1.22922985762706e-23)
(-1.14306750834136e-07 -9.28109114365961e-06 9.05830190671605e-24)
(-9.31144178946262e-08 -9.28061685638755e-06 1.89038165903975e-24)
(-7.61942087276119e-08 -9.28030722910611e-06 9.19997197590587e-24)
(-6.24710310837377e-08 -9.28008575099734e-06 1.87736439074197e-24)
(-5.12083627045053e-08 -9.27992795614174e-06 8.72680822691589e-24)
(-4.18774140643701e-08 -9.27981034274814e-06 1.09963521149339e-23)
(-3.40680094449916e-08 -9.27972580097244e-06 2.35373297620889e-24)
(-2.74591984996149e-08 -9.27966380033307e-06 1.11612393720136e-23)
(-2.17868082012508e-08 -9.27962542221313e-06 1.36597622922522e-24)
(-1.68279651769069e-08 -9.27960504037175e-06 5.63164846562714e-25)
(-1.2383333472431e-08 -9.27959471352491e-06 8.37222935954983e-24)
(-8.28533170871076e-09 -9.27960154183438e-06 1.01530843559739e-24)
(-4.38012785166254e-09 -9.27960981695884e-06 6.61029954676056e-25)
(-5.09382291887055e-10 -9.27963331870718e-06 1.11292575714966e-23)
(3.46937989948909e-09 -9.27966426752305e-06 7.1289315511248e-25)
(7.69920192854809e-09 -9.27969770820475e-06 5.31065102286138e-25)
(1.23323651856453e-08 -9.27974451907468e-06 6.39301212732426e-24)
(1.75301351506008e-08 -9.27979067097742e-06 7.27904691673993e-26)
(2.34658460337693e-08 -9.27984756321124e-06 1.31752744212803e-25)
(3.03484632153851e-08 -9.27991495096535e-06 -9.37182766884544e-25)
(3.84249161852506e-08 -9.2799892555156e-06 2.80213967705031e-25)
(4.79797611763452e-08 -9.28008712358057e-06 3.88419391660226e-25)
(5.94045728566139e-08 -9.28021209291594e-06 2.15067297324771e-25)
(7.32256002552267e-08 -9.2803886805386e-06 8.50058977218781e-24)
(9.01637523537116e-08 -9.28065182116455e-06 -1.01027903687327e-23)
(1.11286175855307e-07 -9.28108771275022e-06 -9.13980265580928e-25)
(1.38265243572161e-07 -9.28187516083674e-06 -1.43714394540249e-25)
(1.73784624003128e-07 -9.28342954442967e-06 -4.6557478912271e-24)
(2.2273156566901e-07 -9.28666177109004e-06 -1.07992597082257e-23)
(2.93494772429634e-07 -9.2933300181979e-06 -1.03504393147492e-23)
(4.01005975586023e-07 -9.30653664580446e-06 -4.32052853819446e-24)
(5.76879004650163e-07 -9.33167735304782e-06 -1.18009554492888e-23)
(8.64488981323037e-07 -9.37325256110239e-06 -1.12046435208115e-23)
(1.3471415587892e-06 -9.4339996883716e-06 -4.98831345934136e-24)
(2.1419147338546e-06 -9.49477642179032e-06 -1.16702304541164e-23)
(3.0550949136495e-06 -9.43990806049913e-06 -1.05135189050681e-23)
(3.93601387450382e-06 -9.05635056683255e-06 -4.41388544993393e-24)
(1.66582717109838e-06 -7.20109377423225e-06 -6.78281604697574e-24)
(-1.15883254015422e-06 -8.9126109590561e-06 1.27278858195457e-24)
(-5.98706855680415e-06 -1.19966209563332e-05 2.81594852681103e-24)
(-5.03315098131696e-06 -1.32871741156108e-05 1.81739230799193e-24)
(-3.79679953447942e-06 -1.33208117376397e-05 1.6630506806498e-24)
(-2.58059449258584e-06 -1.3011475508364e-05 6.7721871753983e-24)
(-1.78209886392207e-06 -1.2718968297532e-05 -2.84850604876143e-25)
(-1.27730820714242e-06 -1.25276380503882e-05 5.9980623882182e-25)
(-9.48152135286442e-07 -1.24153932316442e-05 5.14156748258128e-25)
(-7.29793139979083e-07 -1.23537403549911e-05 -1.73165934440219e-24)
(-5.74732026488748e-07 -1.2320131012638e-05 2.5571600814429e-24)
(-4.59050571225021e-07 -1.23012856437644e-05 5.16428732901526e-24)
(-3.69539257591368e-07 -1.22900472494974e-05 6.64472621636139e-24)
(-2.97971998568071e-07 -1.22827908549062e-05 1.86421880630723e-24)
(-2.39525657328864e-07 -1.22777380408298e-05 3.39535408615946e-24)
(-1.90976143795046e-07 -1.22739924081652e-05 2.22163194112352e-24)
(-1.50133186329149e-07 -1.2271103299717e-05 1.92085244872216e-24)
(-1.15414644752533e-07 -1.22688090190085e-05 6.08346055506858e-24)
(-8.56381042581557e-08 -1.22669615112326e-05 4.17229698722262e-24)
(-5.98812146813403e-08 -1.22654693033016e-05 2.36821252110948e-24)
(-3.73993227981603e-08 -1.22642581176027e-05 2.8253989808379e-24)
(-1.75688671961427e-08 -1.22632832900824e-05 1.3449835638972e-24)
(1.48254746943872e-10 -1.22625132097277e-05 -1.83836020784644e-24)
(1.62247314628471e-08 -1.22619240456078e-05 4.72694734177926e-24)
(3.10885459728669e-08 -1.22615038359713e-05 1.07394183169581e-24)
(4.51287665795991e-08 -1.22612255371568e-05 -1.7529648777482e-24)
(5.87344176097274e-08 -1.22610970519986e-05 5.11342415390257e-24)
(7.22923570231631e-08 -1.22611090527686e-05 -7.93844697588338e-25)
(8.61689595843161e-08 -1.22612742536035e-05 1.71373120350196e-24)
(1.00766049485169e-07 -1.22615906639902e-05 2.95399912879749e-24)
(1.16509990839938e-07 -1.22620644735688e-05 -2.33592003094504e-24)
(1.3385384790456e-07 -1.22627301952906e-05 1.6480608520593e-24)
(1.53339709929074e-07 -1.22636142914456e-05 -4.15169975586258e-24)
(1.7558084520212e-07 -1.22647415603097e-05 2.7537374007082e-24)
(2.01299567094823e-07 -1.22662019274534e-05 2.73159807689893e-24)
(2.31426804137263e-07 -1.22680964649122e-05 -2.27159391101059e-24)
(2.67158253064123e-07 -1.22705822813524e-05 3.65706979424388e-24)
(3.10081511822327e-07 -1.22739168644717e-05 -4.23268939642149e-24)
(3.62405037091482e-07 -1.22785892394912e-05 -7.97588401339393e-25)
(4.27360212153259e-07 -1.22855170143849e-05 1.40564918299191e-24)
(5.09800729522612e-07 -1.2296551127461e-05 -1.40910109427361e-23)
(6.17994012913388e-07 -1.23153774301894e-05 -7.51813330346786e-24)
(7.65437689322289e-07 -1.23491397093721e-05 -6.52189439491617e-24)
(9.75869683819213e-07 -1.24110250727508e-05 -1.18512665542656e-23)
(1.29806411258588e-06 -1.25234863459108e-05 -6.54677966133174e-24)
(1.79589254755873e-06 -1.27150629765046e-05 -6.83591754722147e-24)
(2.59219184414673e-06 -1.30104928630658e-05 -1.36961358654948e-23)
(3.816307826989e-06 -1.33309286756055e-05 -6.50986062062941e-24)
(5.10479318316653e-06 -1.33069231281408e-05 -6.96653024994868e-24)
(6.12445544219787e-06 -1.19722188247026e-05 -1.24525934853538e-23)
(1.23012786736011e-06 -8.81881119618749e-06 -4.72811117463615e-24)
(2.57710711093535e-07 3.91025891047236e-07 7.89971840699049e-25)
(-4.57190598113894e-06 -1.13059857735958e-06 -8.56731998972635e-24)
(-4.24672253966945e-06 -3.27822706508069e-06 1.32258022322448e-24)
(-3.57648119051145e-06 -3.45146729734686e-06 7.05327809657158e-25)
(-2.69726392894613e-06 -3.06648469061803e-06 -5.0740773021705e-24)
(-2.03578470956886e-06 -2.66964787074137e-06 -7.44399592502303e-24)
(-1.57062607265906e-06 -2.40340602457971e-06 2.90811293782023e-25)
(-1.23357826942256e-06 -2.24245487427416e-06 1.54466702784229e-25)
(-9.89123710943834e-07 -2.14871104938609e-06 -8.2865245357572e-24)
(-8.02866032104479e-07 -2.09299240032299e-06 -4.91514439432646e-24)
(-6.56436917423604e-07 -2.05830894717278e-06 9.79151146526275e-24)
(-5.38744713602714e-07 -2.03539393599e-06 3.91605048312423e-24)
(-4.42052348192445e-07 -2.01932134088328e-06 -5.45321492263105e-24)
(-3.61413977906066e-07 -2.00746283774759e-06 8.04951330483799e-24)
(-2.93280220280558e-07 -1.99834875659922e-06 -5.48052747607413e-24)
(-2.35095338062185e-07 -1.99113882407548e-06 1.34015710190749e-24)
(-1.84940568848872e-07 -1.98532220808753e-06 3.38421813411965e-24)
(-1.41345642684953e-07 -1.98057198471223e-06 -4.59674132388081e-24)
(-1.03132823226568e-07 -1.97667223489339e-06 1.19393292269885e-24)
(-6.93345262658265e-08 -1.97347033272996e-06 -6.40602327410148e-24)
(-3.91377393304554e-08 -1.97085940659753e-06 3.81743989522352e-25)
(-1.18404136351994e-08 -1.96876116955015e-06 -7.37540469807252e-24)
(1.31906459521484e-08 -1.9671248619009e-06 2.2988584220632e-24)
(3.65346095848829e-08 -1.96590877637369e-06 5.92901544549738e-25)
(5.87241712012563e-08 -1.96508859531025e-06 -7.51141408878069e-24)
(8.02816770347936e-08 -1.96464982316651e-06 1.99686493078197e-24)
(1.01720285627206e-07 -1.96459010188195e-06 -5.32185819709009e-24)
(1.23559845525407e-07 -1.96492088131367e-06 6.7935560497006e-24)
(1.46345221462162e-07 -1.9656590120537e-06 1.36157043325565e-24)
(1.70649696890782e-07 -1.96683192983752e-06 -7.81163293488701e-24)
(1.97101798038041e-07 -1.96850519542019e-06 5.90106508366243e-24)
(2.26423561254691e-07 -1.97073874281561e-06 -1.05543547349067e-23)
(2.59432405193961e-07 -1.97364140742992e-06 8.42019976949165e-24)
(2.97086390863426e-07 -1.97735917818689e-06 7.94729836962745e-24)
(3.40587186228004e-07 -1.9821324995537e-06 -7.41179605643025e-24)
(3.91435156273149e-07 -1.98828943719246e-06 9.48325392765682e-25)
(4.51561882879105e-07 -1.9963587924942e-06 -1.88198697009712e-24)
(5.23540263303071e-07 -2.00719037419745e-06 -1.42045198938588e-25)
(6.10927009613484e-07 -2.02228836234578e-06 7.57942416855026e-24)
(7.18683941019226e-07 -2.04436662320337e-06 -1.34197692428059e-23)
(8.54550452983473e-07 -2.07843625839404e-06 -4.72929664751207e-24)
(1.02988775319112e-06 -2.13390515375633e-06 -3.78399584372829e-24)
(1.26282085184876e-06 -2.2279476596856e-06 -1.18504101621782e-23)
(1.58915543793096e-06 -2.39020072191371e-06 -3.71354418461253e-24)
(2.04334478968743e-06 -2.65947617261628e-06 -4.32674694016401e-24)
(2.69912667666037e-06 -3.06522724065602e-06 -1.6574481825384e-23)
(3.58341179513323e-06 -3.47307249440384e-06 -3.8862943225172e-24)
(4.30307865770347e-06 -3.32088624454943e-06 -4.20638126761742e-24)
(4.71985179313373e-06 -1.11559940253476e-06 -1.41180852933492e-23)
(-1.62604871899474e-07 5.14527549475981e-07 -2.64871946546046e-24)
(1.66371721366873e-07 6.52426559116162e-06 1.3335223648925e-24)
(-2.45275988211996e-06 5.96639409751272e-06 -1.73787748293094e-24)
(-2.71734683777408e-06 2.62668795643508e-06 1.84997966161557e-24)
(-2.69931372101001e-06 1.91818216684797e-06 6.23703477688234e-25)
(-2.33559314224125e-06 2.08624155697139e-06 -1.45710898677128e-24)
(-1.9441393832196e-06 2.41784216340064e-06 -9.42659959374309e-25)
(-1.60967217396011e-06 2.67840398340791e-06 6.93092618996125e-25)
(-1.32746044187038e-06 2.85312161730102e-06 7.4554866476405e-25)
(-1.1020638312312e-06 2.96522110378497e-06 -1.31541760527192e-24)
(-9.19086304817886e-07 3.03819448906287e-06 -1.14468450391142e-24)
(-7.69427019616219e-07 3.08739285223225e-06 4.39002525877836e-24)
(-6.46061939366444e-07 3.12199070793555e-06 1.68865566381983e-24)
(-5.43004366186955e-07 3.14733493426503e-06 -1.59462234476105e-24)
(-4.56023891266438e-07 3.16657512412026e-06 2.80307950523352e-24)
(-3.81831489405725e-07 3.18161974235029e-06 -1.45670449258222e-24)
(-3.17949740431736e-07 3.1936453233952e-06 1.7452498125364e-24)
(-2.62452144309065e-07 3.20341129941571e-06 1.44258110289824e-24)
(-2.13816793274979e-07 3.21142668029786e-06 -2.66751938528682e-25)
(-1.70817412663185e-07 3.21803236274435e-06 2.05355162461412e-24)
(-1.3242964469062e-07 3.2234713467551e-06 -1.06244546336321e-24)
(-9.77813894659086e-08 3.22790402733589e-06 1.38861321228589e-24)
(-6.61180572677751e-08 3.23146255819758e-06 -1.38043872643191e-24)
(-3.67606031881023e-08 3.23424924031087e-06 1.33138354783682e-24)
(-9.07922805757706e-09 3.23631499781561e-06 1.12547781551639e-24)
(1.75086574954838e-08 3.23770448008516e-06 -1.4005252649712e-24)
(4.35665310942719e-08 3.23842756212536e-06 1.0646336901107e-24)
(6.96562755920249e-08 3.23849120066487e-06 -6.59140631617493e-25)
(9.6336038047514e-08 3.23788968547279e-06 1.33664674047209e-24)
(1.24195626594717e-07 3.23657794677535e-06 2.56877566742761e-25)
(1.53861814795797e-07 3.23450716984747e-06 -2.02565620850333e-24)
(1.86017271796639e-07 3.23158498005579e-06 1.345071507096e-24)
(2.21425981875158e-07 3.22769769352094e-06 -3.94388797580852e-24)
(2.60965986412474e-07 3.22266722475014e-06 2.2202028104608e-24)
(3.05669733001655e-07 3.21626024669807e-06 2.24639276272965e-24)
(3.5677493709823e-07 3.20811583182717e-06 -2.14054867749607e-24)
(4.15809863580177e-07 3.19771834861471e-06 -6.89542935675687e-25)
(4.84715815254532e-07 3.18429441776423e-06 2.51534669886201e-25)
(5.65976570625337e-07 3.16665754085922e-06 -4.567982335172e-25)
(6.62849163217259e-07 3.14287882010305e-06 2.38902686529579e-24)
(7.79546805185383e-07 3.10973452581608e-06 -4.04794224280126e-24)
(9.21963893571453e-07 3.061806094612e-06 -9.17564885324646e-25)
(1.09724778880327e-06 2.98977047758725e-06 -5.71708190596818e-25)
(1.31404445748276e-06 2.87795179982174e-06 -2.55504867693271e-24)
(1.58791187754787e-06 2.70209077812258e-06 -1.288003594286e-24)
(1.91295397624893e-06 2.4372238817501e-06 -4.57500106361014e-25)
(2.2994197817881e-06 2.09159935156918e-06 -4.15883542404203e-24)
(2.6673601302525e-06 1.88762076675809e-06 -7.11287753290067e-25)
(2.72451533797267e-06 2.5565621560266e-06 -1.77684657529549e-25)
(2.54770474599095e-06 5.96782633798743e-06 -3.51594485116686e-24)
(-9.54726225555708e-08 6.62461122789018e-06 1.24252591628272e-24)
(-2.16109057523188e-07 8.92074417037507e-06 1.55110329172579e-24)
(-9.88999306219428e-07 8.2725843875723e-06 3.81777191116578e-24)
(-1.60640179508042e-06 4.1894340017366e-06 1.98547901116743e-24)
(-1.94672257322419e-06 3.01459681087214e-06 4.93578759542639e-25)
(-1.93553910820062e-06 2.95979531117305e-06 -3.19423790206827e-25)
(-1.74913565186942e-06 3.20842549579961e-06 1.15382547503927e-24)
(-1.53140585075119e-06 3.45477218987129e-06 7.16176866950757e-25)
(-1.31161039642559e-06 3.63936465124338e-06 8.71783411323899e-25)
(-1.11964354946971e-06 3.76764062791823e-06 1.62042357463161e-24)
(-9.55071515648357e-07 3.85633366597212e-06 2.09259867901837e-24)
(-8.15959823631084e-07 3.91892460588169e-06 1.62617971267779e-24)
(-6.98879447638424e-07 3.96444427368807e-06 2.42086957884945e-24)
(-5.99701460370908e-07 3.99856399116171e-06 2.00483854549137e-24)
(-5.15162176769342e-07 4.02487019756136e-06 1.08358209692764e-24)
(-4.42501622754028e-07 4.04564699385484e-06 1.91240067369272e-24)
(-3.79524424355902e-07 4.06235835940238e-06 1.82859051624194e-24)
(-3.24464255521861e-07 4.07597683320087e-06 2.71955960197551e-24)
(-2.75901451218585e-07 4.08716965114412e-06 2.7903370852853e-24)
(-2.32662804478483e-07 4.09639292395421e-06 2.28955525684213e-24)
(-1.93760173207601e-07 4.10397737604464e-06 2.50266053687421e-24)
(-1.58344145905349e-07 4.1101507573623e-06 1.78510534897771e-24)
(-1.25666855960568e-07 4.11509322592925e-06 1.41846752966508e-24)
(-9.50666458091129e-08 4.11892618438458e-06 2.13046129266291e-24)
(-6.59247049258868e-08 4.12173762939049e-06 1.26690571724862e-24)
(-3.76622841492205e-08 4.12357952301042e-06 1.41169099592959e-24)
(-9.72704075147865e-09 4.12447870960395e-06 2.18347889307722e-24)
(1.84356380756719e-08 4.12443740834027e-06 1.06054476342451e-24)
(4.73795618069567e-08 4.1234333779564e-06 -2.81775901167756e-25)
(7.76820538702196e-08 4.12142821092758e-06 1.12952521243189e-24)
(1.09960811061313e-07 4.1183322362696e-06 5.18883295368435e-25)
(1.44886807183501e-07 4.11402924418762e-06 -4.92459560104086e-25)
(1.83198990280812e-07 4.1083460704964e-06 -9.53398580377407e-25)
(2.25751622116514e-07 4.10106764067284e-06 -6.10149736100718e-25)
(2.73542007029501e-07 4.09184865682021e-06 -4.05424711767081e-25)
(3.27740852198203e-07 4.08021247487406e-06 3.43782125500873e-25)
(3.89769236546273e-07 4.06550216541698e-06 1.01338639483247e-24)
(4.61387381056875e-07 4.04672838035981e-06 -7.70120546948889e-25)
(5.44772617828389e-07 4.02240781850006e-06 -6.41897239035761e-25)
(6.42637086748704e-07 3.99025037636363e-06 1.44587969196406e-25)
(7.58185502404854e-07 3.94660475647299e-06 8.32950652542699e-25)
(8.95386023139146e-07 3.88572897776856e-06 -1.23571017903829e-24)
(1.05765629569858e-06 3.79848657807205e-06 -9.88356605056943e-25)
(1.24624657086025e-06 3.67110163199842e-06 1.55519734332399e-24)
(1.46231588107203e-06 3.48611378876658e-06 -8.19662104610951e-25)
(1.67405557027676e-06 3.23561398220361e-06 -9.14009795914347e-25)
(1.85723738713548e-06 2.97033591730207e-06 1.16222601748572e-24)
(1.87204214368529e-06 2.97970168363088e-06 -9.06027454266657e-25)
(1.5640666603747e-06 4.10014957357199e-06 -7.52316336580996e-25)
(1.01339859143789e-06 8.26908477919394e-06 1.8138581084626e-24)
(2.42063819361511e-07 9.00782859210762e-06 4.98954227017087e-26)
(-3.23183238210046e-07 8.92409943730861e-06 1.26148290185536e-24)
(-3.05741331379209e-07 7.83633988509739e-06 5.49021222251908e-24)
(-1.05796081898387e-06 3.61636245763442e-06 1.56743904305549e-24)
(-1.48559434974083e-06 2.22120000889905e-06 4.5773924299375e-25)
(-1.63160083268928e-06 2.04404109148308e-06 1.39024165100435e-24)
(-1.55684868180349e-06 2.23893128572015e-06 2.43713282448298e-24)
(-1.4174968576364e-06 2.47590152250138e-06 6.05870394451833e-25)
(-1.24851947800197e-06 2.66771673396966e-06 6.84414522098362e-25)
(-1.08914494066223e-06 2.80830691376347e-06 2.41638157334235e-24)
(-9.45941004925447e-07 2.90948543521804e-06 2.97983239360915e-24)
(-8.2122854152361e-07 2.98313167003253e-06 -2.87341635398307e-25)
(-7.14157891726845e-07 3.03797492614307e-06 1.8181177316678e-24)
(-6.22180806815241e-07 3.07980350184666e-06 3.09311139604459e-24)
(-5.42966813439888e-07 3.11244751304591e-06 -2.06162864749371e-25)
(-4.74335058601508e-07 3.13842999370055e-06 2.91014481630284e-24)
(-4.14458696538168e-07 3.15944095949392e-06 1.36404882889814e-24)
(-3.61800481938463e-07 3.17661192411321e-06 2.20501900425959e-24)
(-3.15083149022246e-07 3.19072951563782e-06 3.37516260889877e-24)
(-2.73237858426269e-07 3.20236288946165e-06 1.77179643094172e-24)
(-2.35346474913881e-07 3.21190628908055e-06 3.27945261582405e-24)
(-2.00609999171449e-07 3.2196576772959e-06 1.46592854094998e-24)
(-1.68329266849832e-07 3.22583220749163e-06 2.4046526320284e-24)
(-1.37873446889739e-07 3.23057665747487e-06 1.86144931606855e-24)
(-1.08648411983081e-07 3.23401368262509e-06 9.97517934275467e-25)
(-8.01027072908924e-08 3.23619621212458e-06 2.7066459712152e-24)
(-5.17091613493232e-08 3.23716750333745e-06 2.05099227996813e-24)
(-2.29431936494851e-08 3.23693049705668e-06 1.72026644575023e-24)
(6.72879721639357e-09 3.23545682473014e-06 -1.30530431734183e-24)
(3.78553858292952e-08 3.23268880426901e-06 1.05511515310023e-24)
(7.10207839613297e-08 3.22852245869834e-06 1.6001305187721e-24)
(1.06862232128152e-07 3.22280035169959e-06 -1.66042809224029e-24)
(1.46077771694751e-07 3.21531541751298e-06 5.74954845970176e-25)
(1.89461488775393e-07 3.20579614401924e-06 -1.83277721873725e-24)
(2.37930619728678e-07 3.19382075072107e-06 -1.65158733662693e-24)
(2.92558443771289e-07 3.17882433424585e-06 1.50721101673782e-24)
(3.54604834072382e-07 3.16001203540622e-06 1.12005569132972e-24)
(4.25580749170863e-07 3.1362252357586e-06 -7.52090203463384e-25)
(5.07292446167795e-07 3.10579820584575e-06 -5.90651966005104e-25)
(6.01855662177387e-07 3.0661804767038e-06 -1.4221200248763e-24)
(7.11512255453776e-07 3.01348515091054e-06 2.45640217983753e-24)
(8.38605417700801e-07 2.94187962706497e-06 -8.29395154185577e-25)
(9.83890698021076e-07 2.84254363080727e-06 -7.49017101411566e-25)
(1.14423348891361e-06 2.70338710673772e-06 2.29435574858251e-24)
(1.31344140018653e-06 2.51197638061574e-06 -6.65467613167844e-25)
(1.44996397878087e-06 2.27140480382553e-06 -6.85119237794646e-25)
(1.52345873702324e-06 2.05854085464558e-06 2.48628177157172e-24)
(1.38109067742745e-06 2.18356842729388e-06 -7.39778562911279e-25)
(9.83656508227063e-07 3.51536711299309e-06 -6.7401140420248e-25)
(2.77367856692553e-07 7.82697750369166e-06 3.64617515446902e-24)
(3.16532178729834e-07 9.00476457088038e-06 -2.60646087342433e-25)
(-2.10476064221193e-07 8.02723766423028e-06 7.70927173502025e-25)
(-1.0410427736154e-07 6.64179300833714e-06 4.20974389660615e-24)
(-8.46627193735744e-07 2.57969957741823e-06 9.43459066967013e-25)
(-1.22861271365965e-06 1.10768495392983e-06 2.56334692711595e-25)
(-1.41434999594211e-06 8.71224829223349e-07 5.4009593852945e-25)
(-1.39121014775473e-06 1.03095771117589e-06 1.07224712787604e-24)
(-1.30084058938e-06 1.25934034270589e-06 3.23577319581031e-25)
(-1.17042101081629e-06 1.45422293933417e-06 3.68700267099258e-25)
(-1.03894296255049e-06 1.60269666194634e-06 1.27513074353678e-24)
(-9.15646011020256e-07 1.71288446708387e-06 2.13513925260891e-24)
(-8.05088642047712e-07 1.7951339563537e-06 -4.51198278315934e-26)
(-7.0818458205288e-07 1.85761598162416e-06 1.70465313605142e-24)
(-6.23664848285967e-07 1.9060043087435e-06 2.23452413317595e-24)
(-5.50042090341006e-07 1.94419918399674e-06 5.07722118388744e-26)
(-4.85691766050833e-07 1.97483149959966e-06 2.31842541630074e-24)
(-4.29148277236754e-07 1.99972115604826e-06 8.17928849912284e-25)
(-3.79125122911651e-07 2.02012813220307e-06 1.83650996051816e-24)
(-3.34505381723856e-07 2.03692559604209e-06 2.60483154839397e-24)
(-2.94330836088022e-07 2.05076604155792e-06 1.03558617479298e-24)
(-2.57766721827874e-07 2.06210303933788e-06 2.30836898218812e-24)
(-2.24072256169227e-07 2.07128553522351e-06 8.23715180304774e-25)
(-1.92594801760778e-07 2.07856062537818e-06 1.29496747145482e-24)
(-1.62736465129895e-07 2.0841158036231e-06 1.78248747080708e-24)
(-1.33941722866104e-07 2.08808052644436e-06 5.85508581578277e-25)
(-1.05688412570935e-07 2.09053441555882e-06 1.28965638119133e-24)
(-7.74716651097541e-08 2.09151408108256e-06 1.76145171188154e-24)
(-4.87959605776078e-08 2.09103179351443e-06 9.13950862270325e-25)
(-1.91555597521976e-08 2.08904863491248e-06 -4.94769142880865e-25)
(1.19706610991128e-08 2.0854935806021e-06 1.19554477426307e-24)
(4.5131763971839e-08 2.08024353479876e-06 8.53659626973855e-25)
(8.09253824063841e-08 2.0731209040221e-06 -6.14689727932506e-25)
(1.20004748155338e-07 2.06388405360563e-06 3.06995551703645e-25)
(1.63098317686421e-07 2.05219753997278e-06 -8.94313704911774e-25)
(2.11041800653157e-07 2.03759674937645e-06 -8.42791176853715e-25)
(2.6478807754938e-07 2.01943515465248e-06 7.9684333311445e-25)
(3.25424418762046e-07 1.99681522520061e-06 1.18801568138451e-24)
(3.94221978921374e-07 1.96847172033505e-06 -9.63755516575104e-25)
(4.72606615753344e-07 1.93262293835752e-06 -3.62637692488775e-25)
(5.62121621401961e-07 1.88659919263662e-06 -5.53985904386227e-25)
(6.64164664792455e-07 1.82646515681374e-06 1.16479170802758e-24)
(7.79774148664198e-07 1.74652547378232e-06 -1.08673369093555e-24)
(9.07905118976411e-07 1.63857917058412e-06 -1.07917759839189e-24)
(1.04315930950399e-06 1.49211835383166e-06 1.13615535138491e-24)
(1.17650156348823e-06 1.2985314728069e-06 -1.06237530259846e-24)
(1.26658083329972e-06 1.06723046362488e-06 -1.06329401598467e-24)
(1.29059666785906e-06 8.88498426385741e-07 1.22932361543776e-24)
(1.10947330496631e-06 1.0665910351019e-06 -1.37680240140446e-24)
(7.581108078281e-07 2.46813919508617e-06 -1.39795036813887e-24)
(4.96269839112918e-08 6.61876823716119e-06 1.91071103682117e-24)
(1.90149894777039e-07 8.09445064193782e-06 -1.08686636251011e-24)
(-6.41014600278969e-08 7.12707087608034e-06 3.38043899396115e-25)
(-1.0004935833086e-07 5.6849754715319e-06 1.7147521369592e-24)
(-7.58488437271919e-07 1.81191529805148e-06 4.1823368363897e-25)
(-1.066124498475e-06 3.06159545593854e-07 9.36834530964064e-26)
(-1.24580106157306e-06 3.05217303205086e-08 -6.35112003234885e-26)
(-1.24743076536783e-06 1.59264205311166e-07 4.54578011650306e-25)
(-1.18932999665594e-06 3.74955703805303e-07 1.45862895506731e-25)
(-1.08883579824644e-06 5.67419542271557e-07 1.67445203697752e-25)
(-9.80820868968304e-07 7.19085496614718e-07 6.01074237689971e-25)
(-8.75200382862475e-07 8.3483853716557e-07 8.43435914500518e-25)
(-7.77617222838952e-07 9.233083322254e-07 -5.5713662358071e-26)
(-6.90205506041989e-07 9.91813478328347e-07 6.05386224385032e-25)
(-6.12707952362367e-07 1.04565937608234e-06 9.06181073829191e-25)
(-5.44362382165679e-07 1.08862876038129e-06 2.58158153451276e-26)
(-4.84056057693066e-07 1.12337641313517e-06 8.66107065439302e-25)
(-4.30665487553702e-07 1.15175987582749e-06 3.63418147924258e-25)
(-3.83145039500168e-07 1.1751045920479e-06 7.21914497929155e-25)
(-3.40537703874022e-07 1.19436278304236e-06 1.00434371248564e-24)
(-3.01998613901193e-07 1.2102279252183e-06 4.60524469518114e-25)
(-2.6677528689973e-07 1.22322114163613e-06 9.48357131370456e-25)
(-2.34186351237759e-07 1.23372318091257e-06 3.60758328388183e-25)
(-2.03626921918024e-07 1.24201544249155e-06 5.72002689505219e-25)
(-1.74537201779395e-07 1.24830652414427e-06 6.51120993059746e-25)
(-1.46389060315475e-07 1.25274039401246e-06 2.53165055538954e-25)
(-1.18690534479181e-07 1.25541270132445e-06 5.66767837810979e-25)
(-9.09640953245239e-08 1.25636410618935e-06 6.96471660790467e-25)
(-6.27381023873281e-08 1.25561000038407e-06 4.2748340329944e-25)
(-3.35332102509388e-08 1.25310708871098e-06 -2.04949772047418e-25)
(-2.85509681493102e-09 1.24877236050179e-06 4.41672917765321e-25)
(2.981450310399e-08 1.24246266014025e-06 3.77337611884553e-25)
(6.50360699426943e-08 1.2339830875549e-06 -2.4146228094741e-25)
(1.03409409922065e-07 1.22305818758572e-06 1.67203852808755e-25)
(1.45605766583807e-07 1.20931379330638e-06 -4.01668220324451e-25)
(1.92374572765081e-07 1.19223786373955e-06 -3.89240526085924e-25)
(2.44551065777202e-07 1.17112814588652e-06 3.53228243543708e-25)
(3.03062004866881e-07 1.14502727788334e-06 4.32162639876969e-25)
(3.68935560219433e-07 1.11261643707807e-06 -3.27844680658316e-25)
(4.43244762553041e-07 1.0720468087767e-06 -1.57385511632227e-25)
(5.27020120230141e-07 1.02067717734702e-06 -2.10495209717658e-25)
(6.20933089073601e-07 9.54692075722573e-07 9.41583454280388e-25)
(7.25011263100462e-07 8.68780729205762e-07 -3.63505469565873e-25)
(8.36973768155783e-07 7.55668699849425e-07 -3.68459099067381e-25)
(9.50402549665942e-07 6.06611182631629e-07 8.86635949038211e-25)
(1.05555383475558e-06 4.16325090113848e-07 -3.70056715040672e-25)
(1.11543132301694e-06 1.98348704253884e-07 -3.6743303693418e-25)
(1.11685630370402e-06 4.96067328286133e-08 8.58150815437798e-25)
(9.4337276183679e-07 2.60883988573178e-07 -4.53217638071873e-25)
(6.6685463069352e-07 1.68946843195106e-06 -4.52966431585578e-25)
(3.84607791791442e-08 5.64288104054906e-06 1.60362025599781e-24)
(4.14497088768374e-08 7.1710813809145e-06 -3.20810400016718e-25)
(2.565530240559e-08 6.5166496110274e-06 1.52589371044994e-25)
(-1.40325581967347e-07 5.16904593740369e-06 1.00377288163258e-24)
(-6.91455451145769e-07 1.41515817687701e-06 1.90153675658829e-25)
(-9.3858224373822e-07 -1.22640198615179e-07 6.98875861363333e-26)
(-1.1018519808238e-06 -4.35799576027279e-07 3.56617826852393e-25)
(-1.11838522601601e-06 -3.38713630120382e-07 4.6772267922396e-25)
(-1.08342322808493e-06 -1.40070879545323e-07 8.46513162829485e-26)
(-1.00699230576374e-06 4.53904851127587e-08 9.25734073310679e-26)
(-9.1890992591985e-07 1.96358875592901e-07 4.58996525020794e-25)
(-8.28972682705051e-07 3.14766949779224e-07 4.69410595282417e-25)
(-7.4325514389557e-07 4.07377373733669e-07 -2.36732630275398e-25)
(-6.647155031708e-07 4.80447782815385e-07 1.89189650951888e-25)
(-5.93890388566337e-07 5.38735773532346e-07 5.60244317297149e-25)
(-5.30611257579229e-07 5.85771617754579e-07 -1.36047636721076e-25)
(-4.74215058276397e-07 6.24121086870168e-07 4.7590789805856e-25)
(-4.23900476401305e-07 6.5562979330533e-07 1.52894402114253e-25)
(-3.78837955259874e-07 6.81643907273289e-07 2.6565183388518e-25)
(-3.38232305294881e-07 7.03158471540672e-07 6.01293119288291e-25)
(-3.01345878357764e-07 7.20902945313762e-07 2.11407490965954e-25)
(-2.67505973586608e-07 7.35433209895383e-07 6.10567759870302e-25)
(-2.36098031869258e-07 7.47162279623419e-07 1.74721467418566e-25)
(-2.0656085737526e-07 7.56393607672131e-07 4.09819266897512e-25)
(-1.78370250954147e-07 7.63362985999315e-07 2.22238366498945e-25)
(-1.51032454323989e-07 7.68225064519623e-07 1.12783453955298e-25)
(-1.24083433349145e-07 7.71085513322803e-07 4.21901176613219e-25)
(-9.70668483596214e-08 7.71993820132726e-07 2.68292344946706e-25)
(-6.95354235543448e-08 7.70963847684177e-07 3.86439771793007e-25)
(-4.10380393168095e-08 7.6794801790068e-07 -2.61395266972897e-25)
(-1.11087227504868e-08 7.62853542544348e-07 1.38326900691401e-25)
(2.07411095890044e-08 7.55528896034044e-07 3.43840240089449e-25)
(5.50326581656877e-08 7.45749021143937e-07 -2.24081491225063e-25)
(9.23202631028912e-08 7.33221385921578e-07 2.98012992038246e-25)
(1.33213051252102e-07 7.17542193865755e-07 -3.45819889524555e-25)
(1.78377966314033e-07 6.9816164507383e-07 -3.30069922451963e-25)
(2.28536204903531e-07 6.7434541688521e-07 3.5671519481748e-25)
(2.84458512798515e-07 6.4510311839883e-07 1.4940817139106e-25)
(3.46945749486497e-07 6.09095059906482e-07 -9.74883074772947e-26)
(4.16755226543917e-07 5.64494600025312e-07 -6.94792079988345e-26)
(4.94474406727763e-07 5.08762273875345e-07 -2.7900311065009e-25)
(5.8016862445655e-07 4.38356858514238e-07 4.94237947890339e-25)
(6.73094600216289e-07 3.48543233152914e-07 -8.54580070468059e-26)
(7.70157841248636e-07 2.33133802730088e-07 -8.79656813099246e-26)
(8.64610315437012e-07 8.53201938048124e-08 4.78417672968288e-25)
(9.46845721174117e-07 -9.72185180539992e-08 -9.12266457424159e-26)
(9.85317160193376e-07 -2.97677720774743e-07 -8.4058852298835e-26)