/*--------------------------------*- C++ -*----------------------------------*\
  =========                 |
  \\      /  F ield         | OpenFOAM: The Open Source CFD Toolbox
   \\    /   O peration     | Website:  https://openfoam.org
    \\  /    A nd           | Version:  10
     \\/     M anipulation  |
\*---------------------------------------------------------------------------*/
FoamFile
{
    format      ascii;
    class       volScalarField;
    location    "4";
    object      wallHeatFlux;
}
// * * * * * * * * * * * * * * * * * * * * * * * * * * * * * * * * * * * * * //

dimensions      [1 0 -3 0 0 0 0];

internalField   uniform 0;

boundaryField
{
    back
    {
        type            calculated;
        value           uniform 0;
    }
    bottom
    {
        type            calculated;
        value           nonuniform List<scalar> 
50
(
151.273929019849
156.400400701497
161.741469013175
164.536698464102
165.801485848685
166.346409733469
166.572110574706
166.660710186877
166.693350590226
166.704770608085
166.708329520532
166.709390851774
166.709680712643
166.709677627698
166.709631209367
166.709531628263
166.709514030674
166.709462613333
166.709396839663
166.70936984261
166.709350453515
166.709343518427
166.709339367043
166.70933761481
166.709323689989
166.709316490112
166.709318675308
166.709320487786
166.709333339966
166.709339519653
166.709354480753
166.709394739823
166.709402400863
166.709408066624
166.709439923946
166.709481843793
166.709507433887
166.709406868587
166.709081151436
166.707739305484
166.703449978732
166.690754260185
166.655527593
166.563180743728
166.334495934143
165.790573551321
164.534342733549
161.737235270203
156.327189752966
151.306432138831
)
;
    }
    left
    {
        type            calculated;
        value           uniform 0;
    }
    front
    {
        type            calculated;
        value           uniform 0;
    }
    right
    {
        type            calculated;
        value           uniform 0;
    }
    top
    {
        type            calculated;
        value           uniform 0;
    }
}


// ************************************************************************* //
